/*--------------------------------*- C++ -*----------------------------------*\
  =========                 |
  \\      /  F ield         | OpenFOAM: The Open Source CFD Toolbox
   \\    /   O peration     | Website:  https://openfoam.org
    \\  /    A nd           | Version:  v11
     \\/     M anipulation  |
\*---------------------------------------------------------------------------*/
FoamFile
{
    format      ascii;
    class       surfaceScalarField;
    location    "0.1";
    object      phi;
}
// * * * * * * * * * * * * * * * * * * * * * * * * * * * * * * * * * * * * * //

dimensions      [0 3 -1 0 0 0 0];

internalField   nonuniform List<scalar> 
760
(
-9.80738e-06
-1.30209e-06
-1.63193e-05
-4.0101e-06
-1.96498e-05
-6.21371e-06
-2.13701e-05
-8.22187e-06
-2.23445e-05
-1.01831e-05
-2.28319e-05
-1.20569e-05
-2.28851e-05
-1.37632e-05
-2.25134e-05
-1.52259e-05
-2.17275e-05
-1.63779e-05
-2.05506e-05
-1.71617e-05
-1.90203e-05
-1.75302e-05
-1.71885e-05
-1.74498e-05
-1.51197e-05
-1.69036e-05
-1.28878e-05
-1.58941e-05
-1.05713e-05
-1.44433e-05
-8.24769e-06
-1.25903e-05
-5.98783e-06
-1.03833e-05
-3.84733e-06
-7.86441e-06
-1.85808e-06
-5.04566e-06
-1.87098e-06
-3.0019e-05
-2.58842e-06
-4.75027e-05
-7.66926e-06
-5.46026e-05
-1.14743e-05
-5.75944e-05
-1.49515e-05
-5.89522e-05
-1.83568e-05
-5.92203e-05
-2.15856e-05
-5.85082e-05
-2.45092e-05
-5.68619e-05
-2.70182e-05
-5.43336e-05
-2.90173e-05
-5.09933e-05
-3.04211e-05
-4.69309e-05
-3.11535e-05
-4.22572e-05
-3.11511e-05
-3.71029e-05
-3.03679e-05
-3.16164e-05
-2.87813e-05
-2.59579e-05
-2.63958e-05
-2.02911e-05
-2.32427e-05
-1.47707e-05
-1.9372e-05
-9.5229e-06
-1.483e-05
-4.61695e-06
-9.61773e-06
-3.61099e-06
-4.90211e-05
-3.44942e-06
-7.29832e-05
-9.97748e-06
-7.98175e-05
-1.45989e-05
-8.18955e-05
-1.89674e-05
-8.23253e-05
-2.32793e-05
-8.1556e-05
-2.73631e-05
-7.96961e-05
-3.10796e-05
-7.68166e-05
-3.43187e-05
-7.29879e-05
-3.69804e-05
-6.82861e-05
-3.89663e-05
-6.27973e-05
-4.01783e-05
-5.66221e-05
-4.05201e-05
-4.98801e-05
-3.99034e-05
-4.27126e-05
-3.82553e-05
-3.52828e-05
-3.55268e-05
-2.77707e-05
-3.16985e-05
-2.03608e-05
-2.6777e-05
-1.32179e-05
-2.07729e-05
-6.44601e-06
-1.36476e-05
-5.19893e-06
-6.36547e-05
-3.43482e-06
-8.98621e-05
-1.02735e-05
-9.46162e-05
-1.52662e-05
-9.53891e-05
-2.02487e-05
-9.48315e-05
-2.52082e-05
-9.3183e-05
-2.99353e-05
-9.0528e-05
-3.42966e-05
-8.69309e-05
-3.81857e-05
-8.24488e-05
-4.14999e-05
-7.71374e-05
-4.413e-05
-7.1056e-05
-4.59575e-05
-6.42743e-05
-4.68546e-05
-5.68795e-05
-4.66887e-05
-4.89833e-05
-4.53296e-05
-4.07268e-05
-4.26608e-05
-3.228e-05
-3.85897e-05
-2.38334e-05
-3.30509e-05
-1.55724e-05
-2.59889e-05
-7.63264e-06
-1.72999e-05
-6.68712e-06
-7.33828e-05
-2.39696e-06
-9.97539e-05
-8.66351e-06
-0.000102647
-1.39701e-05
-0.000102629
-1.95249e-05
-0.000101522
-2.50862e-05
-9.94279e-05
-3.04331e-05
-9.64086e-05
-3.54366e-05
-9.2512e-05
-3.9991e-05
-8.77782e-05
-4.39901e-05
-8.22437e-05
-4.73169e-05
-7.5946e-05
-4.98384e-05
-6.89301e-05
-5.14023e-05
-6.12568e-05
-5.1838e-05
-5.3012e-05
-5.09619e-05
-4.43146e-05
-4.85874e-05
-3.53211e-05
-4.45376e-05
-2.62214e-05
-3.86559e-05
-1.72158e-05
-3.07955e-05
-8.46839e-06
-2.07612e-05
-8.14019e-06
-7.97503e-05
-4.42786e-07
-0.000105799
-5.59495e-06
-0.000107565
-1.13291e-05
-0.000107255
-1.75002e-05
-0.000105951
-2.36933e-05
-0.000103703
-2.96874e-05
-0.00010056
-3.5354e-05
-9.65629e-05
-4.05877e-05
-9.17419e-05
-4.52827e-05
-8.61234e-05
-4.93205e-05
-7.9731e-05
-5.25617e-05
-7.25929e-05
-5.48389e-05
-6.47498e-05
-5.59531e-05
-5.62662e-05
-5.56738e-05
-4.72421e-05
-5.37455e-05
-3.78213e-05
-4.99006e-05
-2.81936e-05
-4.38736e-05
-1.85744e-05
-3.54003e-05
-9.15794e-06
-2.41645e-05
-9.60884e-06
-8.44817e-05
2.27294e-06
-0.00011029
-1.45263e-06
-0.000111459
-7.7634e-06
-0.000111129
-1.46082e-05
-0.0001098
-2.14719e-05
-0.000107522
-2.81346e-05
-0.000104346
-3.44684e-05
-0.000100313
-4.0372e-05
-9.54535e-05
-4.57459e-05
-8.97894e-05
-5.04783e-05
-8.33345e-05
-5.44323e-05
-7.61023e-05
-5.74355e-05
-6.81153e-05
-5.92703e-05
-5.94169e-05
-5.96675e-05
-5.00871e-05
-5.83067e-05
-4.02564e-05
-5.48243e-05
-3.01142e-05
-4.8829e-05
-1.98936e-05
-3.99089e-05
-9.82411e-06
-2.75892e-05
-1.11294e-05
-8.86894e-05
5.65788e-06
-0.000114396
3.5371e-06
-0.000115226
-3.50208e-06
-0.000114985
-1.10731e-05
-0.00011368
-1.86368e-05
-0.000111399
-2.59734e-05
-0.000108202
-3.2958e-05
-0.000104142
-3.94999e-05
-9.92538e-05
-4.55134e-05
-9.35556e-05
-5.09015e-05
-8.70525e-05
-5.55396e-05
-7.9743e-05
-5.92603e-05
-7.16284e-05
-6.18378e-05
-6.27281e-05
-6.29745e-05
-5.30974e-05
-6.22911e-05
-4.28486e-05
-5.93262e-05
-3.21676e-05
-5.35463e-05
-2.13063e-05
-4.43576e-05
-1.05364e-05
-3.10775e-05
-1.27287e-05
-9.29191e-05
9.69165e-06
-0.000118582
9.26418e-06
-0.000119165
1.33753e-06
-0.000119029
-7.00713e-06
-0.000117731
-1.52918e-05
-0.000115424
-2.32928e-05
-0.000112187
-3.08944e-05
-0.000108089
-3.80237e-05
-0.000103172
-4.46178e-05
-9.74512e-05
-5.06032e-05
-9.09216e-05
-5.58769e-05
-8.35634e-05
-6.02871e-05
-7.53531e-05
-6.36116e-05
-6.62793e-05
-6.5536e-05
-5.63654e-05
-6.56324e-05
-4.56965e-05
-6.33441e-05
-3.44474e-05
-5.79823e-05
-2.28868e-05
-4.8734e-05
-1.13364e-05
-3.4646e-05
-1.44284e-05
-9.73828e-05
1.4402e-05
-0.000122983
1.56782e-05
-0.000123318
6.68766e-06
-0.000123252
-2.47847e-06
-0.000121905
-1.14998e-05
-0.00011952
-2.01429e-05
-0.000116205
-2.83101e-05
-0.000112051
-3.59564e-05
-0.000107105
-4.30508e-05
-0.000101382
-4.95531e-05
-9.48624e-05
-5.53918e-05
-8.75051e-05
-6.0441e-05
-7.92556e-05
-6.44947e-05
-7.00641e-05
-6.72362e-05
-5.99111e-05
-6.82036e-05
-4.88418e-05
-6.67539e-05
-3.70073e-05
-6.20367e-05
-2.46855e-05
-5.29822e-05
-1.22545e-05
-3.82892e-05
-1.62479e-05
-0.000102134
1.98412e-05
-0.000127592
2.27471e-05
-0.000127628
1.2489e-05
-0.000127555
2.44678e-06
-0.000126062
-7.32319e-06
-0.000123522
-1.65716e-05
-0.000120077
-2.52324e-05
-0.00011584
-3.33011e-05
-0.00011087
-4.07903e-05
-0.000105174
-4.77029e-05
-9.87207e-05
-5.40083e-05
-9.14397e-05
-5.96175e-05
-8.32392e-05
-6.43535e-05
-7.40216e-05
-6.79143e-05
-6.37114e-05
-6.98233e-05
-5.22961e-05
-6.93701e-05
-3.98835e-05
-6.55462e-05
-2.67456e-05
-5.6994e-05
-1.33198e-05
-4.19732e-05
-1.82035e-05
-0.000107163
2.60678e-05
-0.000132348
3.04251e-05
-0.000131988
1.86576e-05
-0.000131774
7.67244e-06
-0.000129996
-2.85199e-06
-0.000127191
-1.26476e-05
-0.00012354
-2.17022e-05
-0.000119187
-3.00684e-05
-0.000114196
-3.78155e-05
-0.000108572
-4.49995e-05
-0.00010226
-5.16396e-05
-9.51604e-05
-5.76931e-05
-8.71359e-05
-6.30257e-05
-7.80306e-05
-6.73685e-05
-6.76966e-05
-7.02557e-05
-5.60412e-05
-7.09377e-05
-4.30995e-05
-6.82695e-05
-2.9111e-05
-6.05895e-05
-1.45662e-05
-4.56208e-05
-2.03064e-05
-0.000112434
3.31273e-05
-0.000137159
3.86183e-05
-0.000136235
2.50485e-05
-0.00013567
1.30398e-05
-0.000133404
1.77169e-06
-0.000130179
-8.47976e-06
-0.00012622
-1.77897e-05
-0.000121702
-2.629e-05
-0.000116696
-3.41202e-05
-0.000111195
-4.13984e-05
-0.000105123
-4.82001e-05
-9.83433e-05
-5.45371e-05
-9.06684e-05
-6.03296e-05
-8.1873e-05
-6.53615e-05
-7.17193e-05
-6.92078e-05
-6.00053e-05
-7.11215e-05
-4.66529e-05
-6.98646e-05
-3.18223e-05
-6.34851e-05
-1.60341e-05
-4.9083e-05
-2.25544e-05
-0.000117888
4.10171e-05
-0.000141878
4.71313e-05
-0.000140106
3.14043e-05
-0.000138865
1.82873e-05
-0.000135825
6.32626e-06
-0.000131969
-4.23591e-06
-0.000127566
-1.36104e-05
-0.000122817
-2.20339e-05
-0.000117795
-2.97291e-05
-0.000112477
-3.68811e-05
-0.000106762
-4.36246e-05
-0.000100475
-5.00297e-05
-9.33754e-05
-5.60806e-05
-8.51609e-05
-6.16321e-05
-7.54863e-05
-6.63342e-05
-6.40067e-05
-6.94962e-05
-5.04755e-05
-6.98599e-05
-3.4898e-05
-6.52459e-05
-1.7767e-05
-5.2089e-05
-2.49151e-05
-0.000123394
4.96027e-05
-0.000146223
5.55704e-05
-0.000143127
3.72747e-05
-0.000140721
2.29976e-05
-0.000136517
1.04797e-05
-0.000131757
-1.65828e-07
-0.00012674
-9.3436e-06
-0.000121679
-1.74249e-05
-0.000116633
-2.47207e-05
-0.000111559
-3.14816e-05
-0.000106329
-3.78972e-05
-0.000100735
-4.4094e-05
-9.44862e-05
-5.01228e-05
-8.72057e-05
-5.59242e-05
-7.84293e-05
-6.12555e-05
-6.76363e-05
-6.55468e-05
-5.43414e-05
-6.76258e-05
-3.82799e-05
-6.522e-05
-1.97948e-05
-5.416e-05
-2.72836e-05
-0.00012858
5.83869e-05
-0.000149553
6.31504e-05
-0.000144345
4.18942e-05
-0.000140076
2.65295e-05
-0.000134218
1.37544e-05
-0.000128238
3.38234e-06
-0.000122428
-5.25508e-06
-0.000116971
-1.26699e-05
-0.000111891
-1.92584e-05
-0.000107116
-2.53235e-05
-0.000102496
-3.1096e-05
-9.78018e-05
-3.6747e-05
-9.27124e-05
-4.23875e-05
-8.67919e-05
-4.80469e-05
-7.94666e-05
-5.36144e-05
-7.00217e-05
-5.87048e-05
-5.76625e-05
-6.23663e-05
-4.1692e-05
-6.24616e-05
-2.2076e-05
-5.44695e-05
-2.93847e-05
-0.00013228
6.57665e-05
-0.000150258
6.826e-05
-0.000141706
4.39871e-05
-0.000134673
2.79226e-05
-0.000126662
1.54795e-05
-0.000119196
5.9145e-06
-0.000112477
-1.72734e-06
-0.000106594
-8.09003e-06
-0.000101501
-1.36269e-05
-9.70859e-05
-1.86649e-05
-9.31835e-05
-2.345e-05
-8.95667e-05
-2.81738e-05
-8.59212e-05
-3.2986e-05
-8.18019e-05
-3.79887e-05
-7.65762e-05
-4.32024e-05
-6.93661e-05
-4.84677e-05
-5.90357e-05
-5.31889e-05
-4.42776e-05
-5.56856e-05
-2.43187e-05
-5.16416e-05
-3.05512e-05
-0.000130559
6.60271e-05
-0.000143949
6.66942e-05
-0.000130507
4.11744e-05
-0.000119873
2.56249e-05
-0.00010954
1.46481e-05
-0.000100661
6.72535e-06
-9.32145e-05
6.92644e-07
-8.71002e-05
-4.15214e-06
-8.21632e-05
-8.25742e-06
-7.82382e-05
-1.19265e-05
-7.51531e-05
-1.53806e-05
-7.2713e-05
-1.87941e-05
-7.06661e-05
-2.23151e-05
-6.8646e-05
-2.6074e-05
-6.60823e-05
-3.01768e-05
-6.20751e-05
-3.46612e-05
-5.52591e-05
-3.93444e-05
-4.36614e-05
-4.33213e-05
-2.54121e-05
-4.3394e-05
-2.90569e-05
-0.000108858
4.79728e-05
-0.000117001
4.72212e-05
-9.93614e-05
2.82331e-05
-8.57907e-05
1.69724e-05
-7.44258e-05
9.74962e-06
-6.53807e-05
4.86527e-06
-5.82775e-05
1.32759e-06
-5.2779e-05
-1.40699e-06
-4.8612e-05
-3.65657e-06
-4.55668e-05
-5.62307e-06
-4.34809e-05
-7.44719e-06
-4.22189e-05
-9.2378e-06
-4.16425e-05
-1.10893e-05
-4.15634e-05
-1.3093e-05
-4.16563e-05
-1.53445e-05
-4.13024e-05
-1.7943e-05
-3.93371e-05
-2.09619e-05
-3.35687e-05
-2.42908e-05
-2.1563e-05
-2.69252e-05
-2.26522e-05
-3.13474e-05
-3.24555e-05
-2.2356e-05
-1.33798e-05
-6.52961e-06
-1.45198e-06
2.28876e-06
5.01278e-06
6.93721e-06
8.20365e-06
8.89996e-06
9.07499e-06
8.74904e-06
7.92447e-06
6.60583e-06
4.8553e-06
2.94591e-06
1.89285e-06
1.3151e-06
)
;

boundaryField
{
    movingWall
    {
        type            calculated;
        value           uniform 0;
    }
    fixedWalls
    {
        type            calculated;
        value           uniform 0;
    }
    frontAndBack
    {
        type            empty;
    }
}


// ************************************************************************* //
