/*--------------------------------*- C++ -*----------------------------------*\
  =========                 |
  \\      /  F ield         | OpenFOAM: The Open Source CFD Toolbox
   \\    /   O peration     | Website:  https://openfoam.org
    \\  /    A nd           | Version:  v11
     \\/     M anipulation  |
\*---------------------------------------------------------------------------*/
FoamFile
{
    format      ascii;
    class       volVectorField;
    location    "0.1";
    object      U;
}
// * * * * * * * * * * * * * * * * * * * * * * * * * * * * * * * * * * * * * //

dimensions      [0 1 -1 0 0 0 0];

internalField   nonuniform List<vector> 
400
(
(-0.110686 -0.0122777 0)
(-0.281862 -0.0393663 0)
(-0.37095 -0.0630846 0)
(-0.414916 -0.0850198 0)
(-0.439722 -0.106494 0)
(-0.453861 -0.127203 0)
(-0.45919 -0.146268 0)
(-0.455967 -0.162754 0)
(-0.444305 -0.175805 0)
(-0.424523 -0.184681 0)
(-0.397226 -0.188798 0)
(-0.363313 -0.187771 0)
(-0.323963 -0.181452 0)
(-0.280579 -0.169964 0)
(-0.234709 -0.153686 0)
(-0.187945 -0.133197 0)
(-0.1418 -0.109168 0)
(-0.097591 -0.0821743 0)
(-0.0563489 -0.0524286 0)
(-0.0182283 -0.0193491 0)
(-0.352562 -0.0394349 0)
(-0.848564 -0.120553 0)
(-1.05159 -0.185034 0)
(-1.13234 -0.243469 0)
(-1.17122 -0.300493 0)
(-1.18661 -0.354788 0)
(-1.18191 -0.404033 0)
(-1.1581 -0.446115 0)
(-1.11604 -0.479212 0)
(-1.05696 -0.501753 0)
(-0.982427 -0.512441 0)
(-0.894464 -0.51032 0)
(-0.795489 -0.494857 0)
(-0.688312 -0.466023 0)
(-0.576056 -0.424326 0)
(-0.462009 -0.370748 0)
(-0.349425 -0.306539 0)
(-0.241243 -0.232814 0)
(-0.139745 -0.149844 0)
(-0.0453023 -0.0558197 0)
(-0.607192 -0.0638463 0)
(-1.354 -0.185924 0)
(-1.56536 -0.273678 0)
(-1.62716 -0.354357 0)
(-1.64844 -0.433573 0)
(-1.64431 -0.508466 0)
(-1.61763 -0.576202 0)
(-1.56988 -0.634516 0)
(-1.50243 -0.681423 0)
(-1.41673 -0.715072 0)
(-1.31436 -0.733718 0)
(-1.19718 -0.73578 0)
(-1.06736 -0.719956 0)
(-0.927515 -0.685363 0)
(-0.780689 -0.631675 0)
(-0.630358 -0.559165 0)
(-0.480245 -0.468573 0)
(-0.334016 -0.360643 0)
(-0.194776 -0.235131 0)
(-0.0634337 -0.0888301 0)
(-0.828934 -0.0739532 0)
(-1.7176 -0.213002 0)
(-1.87691 -0.310132 0)
(-1.90754 -0.404212 0)
(-1.90778 -0.497488 0)
(-1.8852 -0.585969 0)
(-1.8418 -0.666915 0)
(-1.77897 -0.738186 0)
(-1.6979 -0.797764 0)
(-1.59968 -0.843572 0)
(-1.48544 -0.873423 0)
(-1.35643 -0.885053 0)
(-1.21418 -0.876228 0)
(-1.06065 -0.844915 0)
(-0.898357 -0.789486 0)
(-0.730426 -0.708888 0)
(-0.560531 -0.602641 0)
(-0.392616 -0.470424 0)
(-0.230359 -0.310936 0)
(-0.0753357 -0.119266 0)
(-0.99273 -0.0632079 0)
(-1.94294 -0.197698 0)
(-2.04724 -0.300307 0)
(-2.05843 -0.405551 0)
(-2.04646 -0.510687 0)
(-2.01408 -0.611322 0)
(-1.96267 -0.704854 0)
(-1.89329 -0.789178 0)
(-1.8068 -0.862193 0)
(-1.70393 -0.921615 0)
(-1.58541 -0.964889 0)
(-1.45203 -0.989169 0)
(-1.30479 -0.991383 0)
(-1.14511 -0.968361 0)
(-0.975017 -0.91707 0)
(-0.797249 -0.834855 0)
(-0.615321 -0.719581 0)
(-0.433321 -0.569346 0)
(-0.255391 -0.381291 0)
(-0.0837654 -0.148414 0)
(-1.10762 -0.0323713 0)
(-2.08276 -0.148524 0)
(-2.1492 -0.258216 0)
(-2.15315 -0.375202 0)
(-2.13673 -0.492558 0)
(-2.10093 -0.605845 0)
(-2.04679 -0.712494 0)
(-1.97521 -0.810383 0)
(-1.88688 -0.897364 0)
(-1.78237 -0.971047 0)
(-1.66214 -1.02866 0)
(-1.52667 -1.06697 0)
(-1.37662 -1.08222 0)
(-1.21296 -1.07023 0)
(-1.03729 -1.02658 0)
(-0.852024 -0.946851 0)
(-0.660509 -0.826901 0)
(-0.46698 -0.662756 0)
(-0.276074 -0.449468 0)
(-0.0907069 -0.177454 0)
(-1.19529 0.0150428 0)
(-2.18437 -0.074862 0)
(-2.22722 -0.194588 0)
(-2.23082 -0.324498 0)
(-2.21396 -0.454926 0)
(-2.17761 -0.581463 0)
(-2.12283 -0.70153 0)
(-2.05055 -0.813036 0)
(-1.96149 -0.913894 0)
(-1.85618 -1.00176 0)
(-1.73493 -1.07382 0)
(-1.59798 -1.12664 0)
(-1.44564 -1.156 0)
(-1.27851 -1.15685 0)
(-1.09772 -1.12342 0)
(-0.905339 -1.04942 0)
(-0.704541 -0.92835 0)
(-0.499721 -0.753615 0)
(-0.296098 -0.517513 0)
(-0.0973827 -0.207238 0)
(-1.27341 0.0763655 0)
(-2.27459 0.0172807 0)
(-2.30119 -0.115499 0)
(-2.30748 -0.259457 0)
(-2.29144 -0.403658 0)
(-2.25526 -0.54371 0)
(-2.20017 -0.677059 0)
(-2.12739 -0.801748 0)
(-2.03778 -0.915892 0)
(-1.93187 -1.01736 0)
(-1.80986 -1.10348 0)
(-1.67174 -1.17083 0)
(-1.51747 -1.21491 0)
(-1.34716 -1.22999 0)
(-1.16145 -1.20905 0)
(-0.961942 -1.14384 0)
(-0.751542 -1.02518 0)
(-0.534776 -0.84319 0)
(-0.317532 -0.586564 0)
(-0.104504 -0.238372 0)
(-1.35209 0.150578 0)
(-2.36512 0.124864 0)
(-2.37808 -0.0240339 0)
(-2.38801 -0.183025 0)
(-2.37255 -0.341489 0)
(-2.3361 -0.495002 0)
(-2.28026 -0.641119 0)
(-2.20665 -0.778161 0)
(-2.11637 -0.904601 0)
(-2.00998 -1.01869 0)
(-1.88755 -1.11811 0)
(-1.74879 -1.19962 0)
(-1.5932 -1.25869 0)
(-1.42035 -1.28913 0)
(-1.23023 -1.28281 0)
(-1.02378 -1.22953 0)
(-0.803497 -1.11711 0)
(-0.573899 -0.931661 0)
(-0.341598 -0.657174 0)
(-0.112509 -0.271328 0)
(-1.43596 0.237896 0)
(-2.45981 0.246533 0)
(-2.45933 0.0781995 0)
(-2.47271 -0.0967575 0)
(-2.45664 -0.26984 0)
(-2.4188 -0.436498 0)
(-2.36128 -0.594538 0)
(-2.28629 -0.742729 0)
(-2.19516 -0.880086 0)
(-2.0885 -1.00543 0)
(-1.96623 -1.11697 0)
(-1.82771 -1.21188 0)
(-1.67191 -1.28583 0)
(-1.49768 -1.33243 0)
(-1.30419 -1.3427 0)
(-1.09151 -1.30458 0)
(-0.861416 -1.20268 0)
(-0.618202 -1.01836 0)
(-0.369172 -0.729467 0)
(-0.121728 -0.306518 0)
(-1.5267 0.339232 0)
(-2.55909 0.381635 0)
(-2.54423 0.190095 0)
(-2.55996 -0.00183568 0)
(-2.54126 -0.189823 0)
(-2.5003 -0.369056 0)
(-2.43978 -0.537809 0)
(-2.3626 -0.695521 0)
(-2.2704 -0.841957 0)
(-2.16384 -0.976703 0)
(-2.04262 -1.0987 0)
(-1.90567 -1.20575 0)
(-1.75131 -1.29396 0)
(-1.57756 -1.35708 0)
(-1.3825 -1.38561 0)
(-1.16504 -1.3659 0)
(-0.925833 -1.27932 0)
(-0.668573 -1.10171 0)
(-0.401077 -0.803103 0)
(-0.132492 -0.344313 0)
(-1.62468 0.455789 0)
(-2.66214 0.529542 0)
(-2.63116 0.310366 0)
(-2.64703 0.100247 0)
(-2.62264 -0.10286 0)
(-2.57605 -0.293761 0)
(-2.51066 -0.471544 0)
(-2.4302 -0.636611 0)
(-2.33666 -0.789725 0)
(-2.23068 -0.931441 0)
(-2.11172 -1.06161 0)
(-1.97818 -1.17888 0)
(-1.82764 -1.28009 0)
(-1.65706 -1.35943 0)
(-1.46324 -1.40737 0)
(-1.24349 -1.40914 0)
(-0.996856 -1.34306 0)
(-0.725792 -1.17894 0)
(-0.438226 -0.877072 0)
(-0.145202 -0.38502 0)
(-1.72974 0.588739 0)
(-2.76758 0.689043 0)
(-2.71765 0.436897 0)
(-2.72978 0.207077 0)
(-2.69527 -0.0111785 0)
(-2.6395 -0.212318 0)
(-2.56664 -0.396793 0)
(-2.48143 -0.566358 0)
(-2.38611 -0.723053 0)
(-2.28131 -0.868596 0)
(-2.16612 -1.00392 0)
(-2.03839 -1.12868 0)
(-1.89481 -1.24071 0)
(-1.73118 -1.33506 0)
(-1.54271 -1.40268 0)
(-1.32468 -1.4284 0)
(-1.07379 -1.38814 0)
(-0.790375 -1.24558 0)
(-0.481635 -0.949283 0)
(-0.160371 -0.4288 0)
(-1.84129 0.738764 0)
(-2.87338 0.857536 0)
(-2.7997 0.565894 0)
(-2.80163 0.314604 0)
(-2.75062 0.0816801 0)
(-2.68072 -0.127418 0)
(-2.59696 -0.315338 0)
(-2.50501 -0.485676 0)
(-2.4073 -0.64203 0)
(-2.30427 -0.787434 0)
(-2.19464 -0.923993 0)
(-2.07561 -1.05253 0)
(-1.94301 -1.17204 0)
(-1.79135 -1.27886 0)
(-1.61401 -1.36509 0)
(-1.40379 -1.41609 0)
(-1.15415 -1.40652 0)
(-0.861968 -1.29465 0)
(-0.532221 -1.01581 0)
(-0.178622 -0.475441 0)
(-1.95746 0.905082 0)
(-2.97557 1.02962 0)
(-2.86966 0.690592 0)
(-2.8511 0.416211 0)
(-2.7747 0.170279 0)
(-2.68413 -0.0431332 0)
(-2.58513 -0.230022 0)
(-2.484 -0.39637 0)
(-2.38304 -0.547547 0)
(-2.28233 -0.687949 0)
(-2.18012 -0.820852 0)
(-2.07306 -0.948252 0)
(-1.95619 -1.07049 0)
(-1.82281 -1.18548 0)
(-1.66443 -1.28717 0)
(-1.47091 -1.36267 0)
(-1.23153 -1.3872 0)
(-0.937831 -1.31548 0)
(-0.590075 -1.06956 0)
(-0.200551 -0.523849 0)
(-2.07179 1.08296 0)
(-3.06428 1.19437 0)
(-2.91122 0.799225 0)
(-2.85634 0.501514 0)
(-2.74303 0.246661 0)
(-2.62392 0.0346717 0)
(-2.50495 -0.145139 0)
(-2.3921 -0.301583 0)
(-2.28698 -0.44183 0)
(-2.18904 -0.571494 0)
(-2.09603 -0.694856 0)
(-2.0042 -0.814959 0)
(-1.90813 -0.933463 0)
(-1.80032 -1.05007 0)
(-1.67071 -1.16117 0)
(-1.50621 -1.25697 0)
(-1.29106 -1.31568 0)
(-1.00925 -1.29214 0)
(-0.652355 -1.09794 0)
(-0.226099 -0.570793 0)
(-2.16144 1.2565 0)
(-3.11207 1.32984 0)
(-2.88686 0.871996 0)
(-2.77306 0.554932 0)
(-2.6102 0.299702 0)
(-2.45517 0.097875 0)
(-2.31276 -0.066921 0)
(-2.1869 -0.206382 0)
(-2.07761 -0.329149 0)
(-1.98324 -0.441652 0)
(-1.90102 -0.548779 0)
(-1.82713 -0.65428 0)
(-1.75629 -0.76087 0)
(-1.68112 -0.869956 0)
(-1.59103 -0.98067 0)
(-1.47092 -1.08744 0)
(-1.30012 -1.1743 0)
(-1.05311 -1.20182 0)
(-0.707377 -1.07907 0)
(-0.252174 -0.607876 0)
(-2.14388 1.37435 0)
(-3.03526 1.39009 0)
(-2.70526 0.876561 0)
(-2.50602 0.553785 0)
(-2.2868 0.31412 0)
(-2.09528 0.135361 0)
(-1.93242 -0.00421353 0)
(-1.79753 -0.118428 0)
(-1.6878 -0.216565 0)
(-1.59998 -0.305144 0)
(-1.53077 -0.38902 0)
(-1.4766 -0.472036 0)
(-1.43323 -0.557364 0)
(-1.39478 -0.647553 0)
(-1.35229 -0.744102 0)
(-1.29145 -0.845959 0)
(-1.18944 -0.945189 0)
(-1.01207 -1.01485 0)
(-0.717961 -0.976565 0)
(-0.263893 -0.61416 0)
(-1.71803 1.25804 0)
(-2.53416 1.25501 0)
(-2.12724 0.75511 0)
(-1.8424 0.462945 0)
(-1.59105 0.267632 0)
(-1.38885 0.131544 0)
(-1.22897 0.0308321 0)
(-1.10428 -0.0482255 0)
(-1.00868 -0.114006 0)
(-0.937403 -0.172 0)
(-0.886806 -0.226124 0)
(-0.854031 -0.279457 0)
(-0.83652 -0.334679 0)
(-0.831309 -0.39433 0)
(-0.833779 -0.460891 0)
(-0.835272 -0.536391 0)
(-0.818547 -0.620503 0)
(-0.750172 -0.703128 0)
(-0.574844 -0.738016 0)
(-0.202006 -0.540777 0)
(-0.326726 0.522234 0)
(-0.750909 0.580038 0)
(-0.55111 0.359832 0)
(-0.349646 0.212902 0)
(-0.191454 0.122194 0)
(-0.0738565 0.0635294 0)
(0.0129033 0.0227636 0)
(0.0765254 -0.00767727 0)
(0.122305 -0.0320274 0)
(0.153735 -0.0528466 0)
(0.173037 -0.0718407 0)
(0.18152 -0.0902858 0)
(0.179815 -0.109276 0)
(0.168053 -0.129897 0)
(0.1461 -0.153382 0)
(0.114125 -0.181243 0)
(0.0744364 -0.215138 0)
(0.0374072 -0.255045 0)
(0.0355338 -0.289336 0)
(0.16778 -0.240118 0)
)
;

boundaryField
{
    movingWall
    {
        type            fixedValue;
        value           uniform (1 0 0);
    }
    fixedWalls
    {
        type            noSlip;
    }
    frontAndBack
    {
        type            empty;
    }
}


// ************************************************************************* //
