/*--------------------------------*- C++ -*----------------------------------*\
  =========                 |
  \\      /  F ield         | OpenFOAM: The Open Source CFD Toolbox
   \\    /   O peration     | Website:  https://openfoam.org
    \\  /    A nd           | Version:  v11
     \\/     M anipulation  |
\*---------------------------------------------------------------------------*/
FoamFile
{
    format      ascii;
    class       surfaceScalarField;
    location    "4.2";
    object      phi;
}
// * * * * * * * * * * * * * * * * * * * * * * * * * * * * * * * * * * * * * //

dimensions      [0 3 -1 0 0 0 0];

internalField   nonuniform List<scalar> 
760
(
-9.85792e-06
-1.35016e-06
-1.63955e-05
-4.12401e-06
-1.97269e-05
-6.3462e-06
-2.14394e-05
-8.35182e-06
-2.24053e-05
-1.03046e-05
-2.28848e-05
-1.21688e-05
-2.29312e-05
-1.3866e-05
-2.25534e-05
-1.53203e-05
-2.17622e-05
-1.64648e-05
-2.05802e-05
-1.72414e-05
-1.90452e-05
-1.76027e-05
-1.72089e-05
-1.75151e-05
-1.51359e-05
-1.69613e-05
-1.29e-05
-1.59437e-05
-1.058e-05
-1.44846e-05
-8.25348e-06
-1.26231e-05
-5.99132e-06
-1.04077e-05
-3.84915e-06
-7.88084e-06
-1.85881e-06
-5.05491e-06
-1.8739e-06
-3.01247e-05
-2.67108e-06
-4.76427e-05
-7.85256e-06
-5.47243e-05
-1.16731e-05
-5.76924e-05
-1.51371e-05
-5.90316e-05
-1.85241e-05
-5.92857e-05
-2.17356e-05
-5.85629e-05
-2.46441e-05
-5.69085e-05
-2.71404e-05
-5.43739e-05
-2.91288e-05
-5.10282e-05
-3.05232e-05
-4.6961e-05
-3.1247e-05
-4.22828e-05
-3.12362e-05
-3.71241e-05
-3.04445e-05
-3.16333e-05
-2.88487e-05
-2.59706e-05
-2.64533e-05
-2.03e-05
-2.32897e-05
-1.47763e-05
-1.9408e-05
-9.52596e-06
-1.4855e-05
-4.61821e-06
-9.6322e-06
-3.61564e-06
-4.90446e-05
-3.53918e-06
-7.30079e-05
-1.01637e-05
-7.98239e-05
-1.47869e-05
-8.18876e-05
-1.91334e-05
-8.23104e-05
-2.34228e-05
-8.15386e-05
-2.74874e-05
-7.9679e-05
-3.11887e-05
-7.68017e-05
-3.44158e-05
-7.2976e-05
-3.70682e-05
-6.82777e-05
-3.90469e-05
-6.27923e-05
-4.02528e-05
-5.66201e-05
-4.05892e-05
-4.98805e-05
-3.99672e-05
-4.27145e-05
-3.83132e-05
-3.52854e-05
-3.55782e-05
-2.77733e-05
-3.17423e-05
-2.03629e-05
-2.68121e-05
-1.32192e-05
-2.07983e-05
-6.4466e-06
-1.36628e-05
-5.20394e-06
-6.35212e-05
-3.50938e-06
-8.973e-05
-1.04209e-05
-9.45039e-05
-1.54071e-05
-9.52852e-05
-2.03665e-05
-9.47389e-05
-2.53062e-05
-9.31019e-05
-3.00176e-05
-9.04581e-05
-3.43669e-05
-8.68716e-05
-3.82472e-05
-8.23995e-05
-4.1555e-05
-7.70973e-05
-4.41806e-05
-7.10243e-05
-4.60047e-05
-6.42501e-05
-4.68993e-05
-5.68618e-05
-4.6731e-05
-4.89711e-05
-4.53695e-05
-4.0719e-05
-4.26977e-05
-3.22754e-05
-3.86226e-05
-2.3831e-05
-3.30785e-05
-1.55712e-05
-2.60098e-05
-7.6322e-06
-1.73129e-05
-6.69154e-06
-7.31433e-05
-2.4507e-06
-9.95482e-05
-8.76509e-06
-0.000102494
-1.40628e-05
-0.000102498
-1.95987e-05
-0.000101411
-2.51457e-05
-9.93342e-05
-3.04817e-05
-9.63295e-05
-3.54772e-05
-9.24454e-05
-4.00258e-05
-8.77226e-05
-4.4021e-05
-8.21977e-05
-4.73452e-05
-7.59084e-05
-4.98649e-05
-6.89001e-05
-5.14277e-05
-6.12335e-05
-5.18627e-05
-5.29946e-05
-5.09861e-05
-4.43023e-05
-4.86106e-05
-3.53129e-05
-4.45593e-05
-2.62164e-05
-3.8675e-05
-1.7213e-05
-3.08106e-05
-8.46724e-06
-2.07711e-05
-8.14364e-06
-7.94909e-05
-4.80051e-07
-0.0001056
-5.65929e-06
-0.000107428
-1.1385e-05
-0.00010714
-1.75429e-05
-0.000105857
-2.37271e-05
-0.000103625
-2.97143e-05
-0.000100496
-3.53759e-05
-9.65087e-05
-4.06062e-05
-9.16966e-05
-4.52989e-05
-8.60856e-05
-4.93353e-05
-7.96997e-05
-5.25755e-05
-7.25672e-05
-5.48523e-05
-6.47291e-05
-5.59663e-05
-5.62502e-05
-5.5687e-05
-4.72301e-05
-5.37587e-05
-3.78128e-05
-4.99135e-05
-2.81881e-05
-4.38855e-05
-1.85712e-05
-3.54102e-05
-9.15655e-06
-2.41713e-05
-9.61128e-06
-8.42579e-05
2.24665e-06
-0.000110135
-1.49054e-06
-0.000111357
-7.79438e-06
-0.000111045
-1.46314e-05
-0.000109733
-2.14901e-05
-0.000107467
-2.81488e-05
-0.000104301
-3.44797e-05
-0.000100275
-4.03814e-05
-9.54222e-05
-4.57541e-05
-8.97632e-05
-5.04856e-05
-8.33125e-05
-5.44391e-05
-7.6084e-05
-5.74421e-05
-6.81003e-05
-5.92769e-05
-5.94049e-05
-5.96743e-05
-5.00778e-05
-5.83137e-05
-4.02496e-05
-5.48314e-05
-3.01096e-05
-4.88358e-05
-1.98909e-05
-3.99149e-05
-9.82285e-06
-2.75935e-05
-1.1131e-05
-8.85203e-05
5.63891e-06
-0.000114289
3.51676e-06
-0.000115159
-3.51759e-06
-0.00011493
-1.10848e-05
-0.000113637
-1.86461e-05
-0.000111363
-2.59805e-05
-0.000108173
-3.29637e-05
-0.000104119
-3.95046e-05
-9.92344e-05
-4.55175e-05
-9.35393e-05
-5.09051e-05
-8.70388e-05
-5.55429e-05
-7.97314e-05
-5.92634e-05
-7.16188e-05
-6.1841e-05
-6.27202e-05
-6.29778e-05
-5.30912e-05
-6.22945e-05
-4.28439e-05
-5.93298e-05
-3.21643e-05
-5.35499e-05
-2.13042e-05
-4.43609e-05
-1.05355e-05
-3.108e-05
-1.27296e-05
-9.28023e-05
9.67797e-06
-0.000118516
9.25491e-06
-0.000119124
1.33093e-06
-0.000118995
-7.01251e-06
-0.000117705
-1.52962e-05
-0.000115402
-2.32962e-05
-0.00011217
-3.08972e-05
-0.000108076
-3.80261e-05
-0.000103161
-4.46198e-05
-9.74419e-05
-5.06049e-05
-9.09137e-05
-5.58785e-05
-8.35567e-05
-6.02886e-05
-7.53474e-05
-6.36131e-05
-6.62746e-05
-6.55375e-05
-5.63616e-05
-6.5634e-05
-4.56935e-05
-6.33458e-05
-3.44453e-05
-5.79841e-05
-2.28855e-05
-4.87357e-05
-1.13358e-05
-3.46474e-05
-1.4429e-05
-9.73076e-05
1.43924e-05
-0.000122945
1.56755e-05
-0.000123294
6.68572e-06
-0.000123233
-2.48059e-06
-0.000121889
-1.15016e-05
-0.000119507
-2.01444e-05
-0.000116196
-2.83115e-05
-0.000112044
-3.59576e-05
-0.000107099
-4.30518e-05
-0.000101377
-4.9554e-05
-9.48581e-05
-5.53926e-05
-8.75015e-05
-6.04417e-05
-7.92525e-05
-6.44954e-05
-7.00615e-05
-6.72369e-05
-5.99089e-05
-6.82043e-05
-4.88401e-05
-6.67547e-05
-3.7006e-05
-6.20376e-05
-2.46846e-05
-5.2983e-05
-1.22541e-05
-3.82899e-05
-1.62482e-05
-0.000102089
1.98348e-05
-0.000127572
2.27479e-05
-0.000127615
1.24891e-05
-0.000127543
2.44618e-06
-0.000126052
-7.32388e-06
-0.000123515
-1.65723e-05
-0.000120072
-2.52332e-05
-0.000115836
-3.33018e-05
-0.000110867
-4.07908e-05
-0.000105172
-4.77034e-05
-9.87186e-05
-5.40087e-05
-9.14378e-05
-5.96178e-05
-8.32376e-05
-6.43538e-05
-7.40203e-05
-6.79146e-05
-6.37102e-05
-6.98237e-05
-5.22952e-05
-6.93704e-05
-3.98828e-05
-6.55466e-05
-2.67452e-05
-5.69944e-05
-1.33196e-05
-4.19736e-05
-1.82037e-05
-0.000107137
2.60638e-05
-0.000132338
3.04275e-05
-0.00013198
1.86584e-05
-0.000131767
7.67244e-06
-0.000129991
-2.85219e-06
-0.000127188
-1.2648e-05
-0.000123538
-2.17027e-05
-0.000119185
-3.00688e-05
-0.000114195
-3.78157e-05
-0.000108571
-4.49998e-05
-0.000102259
-5.16398e-05
-9.51595e-05
-5.76933e-05
-8.71351e-05
-6.30259e-05
-7.80299e-05
-6.73686e-05
-6.7696e-05
-7.02558e-05
-5.60407e-05
-7.09378e-05
-4.30992e-05
-6.82697e-05
-2.91108e-05
-6.05896e-05
-1.45661e-05
-4.5621e-05
-2.03064e-05
-0.00011242
3.3125e-05
-0.000137154
3.8621e-05
-0.00013623
2.50494e-05
-0.000135666
1.30401e-05
-0.000133402
1.77171e-06
-0.000130178
-8.47998e-06
-0.000126219
-1.779e-05
-0.000121701
-2.62902e-05
-0.000116695
-3.41203e-05
-0.000111194
-4.13986e-05
-0.000105122
-4.82002e-05
-9.83428e-05
-5.45372e-05
-9.0668e-05
-6.03297e-05
-8.18727e-05
-6.53616e-05
-7.1719e-05
-6.92079e-05
-6.0005e-05
-7.11216e-05
-4.66527e-05
-6.98647e-05
-3.18222e-05
-6.34851e-05
-1.6034e-05
-4.90831e-05
-2.25545e-05
-0.00011788
4.10159e-05
-0.000141876
4.71337e-05
-0.000140103
3.14049e-05
-0.000138863
1.82877e-05
-0.000135825
6.32643e-06
-0.000131969
-4.23602e-06
-0.000127565
-1.36106e-05
-0.000122817
-2.2034e-05
-0.000117795
-2.97292e-05
-0.000112477
-3.68813e-05
-0.000106762
-4.36247e-05
-0.000100475
-5.00298e-05
-9.33752e-05
-5.60806e-05
-8.51608e-05
-6.16322e-05
-7.54862e-05
-6.63343e-05
-6.40066e-05
-6.94962e-05
-5.04754e-05
-6.986e-05
-3.48979e-05
-6.52459e-05
-1.7767e-05
-5.2089e-05
-2.49152e-05
-0.000123389
4.96021e-05
-0.000146221
5.55719e-05
-0.000143125
3.7275e-05
-0.000140721
2.29982e-05
-0.000136518
1.048e-05
-0.000131757
-1.6585e-07
-0.000126739
-9.34372e-06
-0.000121679
-1.74249e-05
-0.000116633
-2.47207e-05
-0.000111559
-3.14817e-05
-0.000106329
-3.78972e-05
-0.000100735
-4.4094e-05
-9.44861e-05
-5.01228e-05
-8.72056e-05
-5.59242e-05
-7.84293e-05
-6.12555e-05
-6.76362e-05
-6.55468e-05
-5.43414e-05
-6.76259e-05
-3.82799e-05
-6.522e-05
-1.97948e-05
-5.416e-05
-2.72836e-05
-0.000128576
5.83867e-05
-0.00014955
6.31506e-05
-0.000144344
4.1894e-05
-0.000140077
2.65301e-05
-0.00013422
1.37549e-05
-0.000128239
3.38241e-06
-0.000122427
-5.25515e-06
-0.00011697
-1.26699e-05
-0.000111891
-1.92584e-05
-0.000107116
-2.53236e-05
-0.000102496
-3.1096e-05
-9.78018e-05
-3.6747e-05
-9.27124e-05
-4.23876e-05
-8.67918e-05
-4.8047e-05
-7.94666e-05
-5.36144e-05
-7.00217e-05
-5.87048e-05
-5.76625e-05
-6.23663e-05
-4.1692e-05
-6.24616e-05
-2.2076e-05
-5.44695e-05
-2.93847e-05
-0.000132276
6.57671e-05
-0.000150253
6.82595e-05
-0.000141704
4.39862e-05
-0.000134674
2.79231e-05
-0.000126664
1.548e-05
-0.000119197
5.91463e-06
-0.000112477
-1.72737e-06
-0.000106593
-8.09005e-06
-0.000101501
-1.36269e-05
-9.70858e-05
-1.8665e-05
-9.31834e-05
-2.345e-05
-8.95667e-05
-2.81738e-05
-8.59212e-05
-3.2986e-05
-8.18019e-05
-3.79887e-05
-7.65762e-05
-4.32024e-05
-6.93661e-05
-4.84677e-05
-5.90357e-05
-5.31889e-05
-4.42776e-05
-5.56856e-05
-2.43187e-05
-5.16416e-05
-3.05512e-05
-0.000130556
6.60285e-05
-0.000143943
6.6694e-05
-0.000130504
4.11732e-05
-0.000119874
2.5625e-05
-0.000109542
1.46484e-05
-0.000100662
6.72548e-06
-9.32145e-05
6.92646e-07
-8.71e-05
-4.15215e-06
-8.2163e-05
-8.25744e-06
-7.82381e-05
-1.19266e-05
-7.5153e-05
-1.53807e-05
-7.2713e-05
-1.87942e-05
-7.06661e-05
-2.23151e-05
-6.8646e-05
-2.60741e-05
-6.60823e-05
-3.01768e-05
-6.20751e-05
-3.46612e-05
-5.52591e-05
-3.93444e-05
-4.36614e-05
-4.33213e-05
-2.54121e-05
-4.3394e-05
-2.90569e-05
-0.000108858
4.79741e-05
-0.000116998
4.72217e-05
-9.93584e-05
2.82325e-05
-8.579e-05
1.69723e-05
-7.44263e-05
9.74972e-06
-6.5381e-05
4.86534e-06
-5.82775e-05
1.3276e-06
-5.27788e-05
-1.407e-06
-4.86119e-05
-3.65658e-06
-4.55667e-05
-5.62308e-06
-4.34809e-05
-7.4472e-06
-4.22189e-05
-9.23781e-06
-4.16425e-05
-1.10893e-05
-4.15633e-05
-1.3093e-05
-4.16563e-05
-1.53445e-05
-4.13024e-05
-1.7943e-05
-3.93371e-05
-2.09619e-05
-3.35687e-05
-2.42908e-05
-2.1563e-05
-2.69252e-05
-2.26522e-05
-3.1348e-05
-3.24553e-05
-2.23552e-05
-1.33794e-05
-6.52959e-06
-1.45202e-06
2.28876e-06
5.01282e-06
6.93725e-06
8.20368e-06
8.89998e-06
9.07501e-06
8.74905e-06
7.92448e-06
6.60584e-06
4.8553e-06
2.94591e-06
1.89285e-06
1.3151e-06
)
;

boundaryField
{
    movingWall
    {
        type            calculated;
        value           uniform 0;
    }
    fixedWalls
    {
        type            calculated;
        value           uniform 0;
    }
    frontAndBack
    {
        type            empty;
    }
}


// ************************************************************************* //
