/*--------------------------------*- C++ -*----------------------------------*\
  =========                 |
  \\      /  F ield         | OpenFOAM: The Open Source CFD Toolbox
   \\    /   O peration     | Website:  https://openfoam.org
    \\  /    A nd           | Version:  v11
     \\/     M anipulation  |
\*---------------------------------------------------------------------------*/
FoamFile
{
    format      ascii;
    class       volScalarField;
    location    "7.7";
    object      p;
}
// * * * * * * * * * * * * * * * * * * * * * * * * * * * * * * * * * * * * * //

dimensions      [0 2 -2 0 0 0 0];

internalField   nonuniform List<scalar> 
400
(
5.07639e-10
0.0312776
0.0940502
0.189168
0.314131
0.465657
0.639803
0.832087
1.03762
1.25121
1.46751
1.6811
1.88663
2.07892
2.25306
2.40459
2.52955
2.62467
2.68744
2.71872
-0.0312764
0.000767581
0.0649409
0.162306
0.290226
0.445301
0.623478
0.820165
1.03036
1.24877
1.46995
1.68836
1.89856
2.09524
2.27342
2.42849
2.55641
2.65378
2.71795
2.74999
-0.0957474
-0.0620082
0.00528839
0.107336
0.241339
0.403695
0.590128
0.795819
1.01555
1.2438
1.47492
1.70318
1.9229
2.12859
2.31503
2.47738
2.61138
2.71343
2.78073
2.81446
-0.197698
-0.161402
-0.0891091
0.0204163
0.164103
0.338016
0.537521
0.757441
0.992202
1.23597
1.48275
1.72652
1.96128
2.1812
2.3807
2.55462
2.6983
2.80783
2.88012
2.91641
-0.339958
-0.300077
-0.220726
-0.100653
0.0566482
0.246752
0.464505
0.704223
0.959855
1.22512
1.49361
1.75887
2.0145
2.25422
2.47197
2.66207
2.81937
2.93944
3.01879
3.05867
-0.526491
-0.481816
-0.39304
-0.258928
-0.08359
0.127852
0.369534
0.635099
0.91788
1.21105
1.50768
1.80084
2.08362
2.34919
2.59087
2.80231
2.97765
3.11176
3.20053
3.24521
-0.762582
-0.711653
-0.610632
-0.458383
-0.259895
-0.0212619
0.250701
0.548769
0.865529
1.19351
1.52522
1.8532
2.16995
2.46802
2.73998
2.97861
3.1771
3.32935
3.43037
3.4813
-1.05509
-0.996081
-0.879339
-0.703982
-0.476272
-0.203651
0.1058
0.443772
0.801973
1.17223
1.54649
1.91675
2.27495
2.61292
2.92237
3.19499
3.4227
3.59805
3.7148
3.7738
-1.4128
-1.34334
-1.20642
-1.00174
-0.737413
-0.422767
-0.067551
0.318592
0.726384
1.14696
1.57176
1.99234
2.40013
2.78627
3.14149
3.45613
3.72046
3.92514
4.06205
4.13151
-1.84694
-1.76378
-1.6008
-1.35876
-1.04859
-0.68225
-0.271694
0.171844
0.638054
1.11748
1.60125
2.08067
2.54688
2.99042
3.40097
3.7673
4.07748
4.31951
4.4825
4.56566
-2.37191
-2.27044
-2.07322
-1.78315
-1.41535
-0.985569
-0.508571
0.00257178
0.536587
1.08369
1.63504
2.18214
2.71615
3.22729
3.70429
4.13407
4.50187
4.79193
4.98915
5.09062
-3.00627
-2.87961
-2.63647
-2.28373
-1.84303
-1.33538
-0.779141
-0.189308
0.42217
1.04568
1.67305
2.29656
2.90803
3.49786
4.0541
4.56175
5.00245
5.35518
5.59832
5.72498
-3.77427
-3.61162
-3.30516
-2.86925
-2.33558
-1.73248
-1.0825
-0.40238
0.295945
1.00389
1.71483
2.42278
3.12111
3.80123
4.4512
5.0543
5.58797
6.02388
6.33033
6.49298
-4.70783
-4.4914
-4.09492
-3.54663
-2.89371
-2.17408
-1.41464
-0.632906
0.160467
0.959218
1.75951
2.55826
3.35163
4.13337
4.8928
5.61243
6.26535
6.81364
7.21011
7.42654
-5.8491
-5.54812
-5.0196
-4.31734
-3.51156
-2.65141
-1.76682
-0.873876
0.0201714
0.913169
1.80556
2.69855
3.5926
4.48554
5.37013
6.23028
7.03606
7.73831
8.26684
8.56782
-7.25309
-6.81185
-6.08443
-5.1705
-4.17153
-3.14644
-2.12382
-1.11416
-0.118261
0.867965
1.85076
2.83698
3.83289
4.84254
5.86516
6.89025
7.88922
8.80314
9.53056
9.9718
-8.9877
-8.30124
-7.27061
-6.07097
-4.83728
-3.62858
-2.46268
-1.33824
-0.24593
0.826495
1.89223
2.96465
4.05696
5.1814
6.3473
7.556
8.78969
9.98932
11.02
11.7064
-11.121
-9.9881
-8.5045
-6.94221
-5.44698
-4.0532
-2.75328
-1.52709
-0.352419
0.792073
1.92665
3.07114
4.24581
5.472
6.77192
8.1657
9.66093
11.2232
12.7068
13.8397
-13.654
-11.7075
-9.60881
-7.65173
-5.91379
-4.36608
-2.96247
-1.66114
-0.427403
0.767923
1.9508
3.14612
4.37986
5.68119
7.0848
8.63251
10.3704
12.3275
14.4262
16.3727
-16.4362
-13.108
-10.3377
-8.06686
-6.17082
-4.53343
-3.07278
-1.7313
-0.466499
0.755354
1.96337
3.18522
4.45002
5.7915
7.25215
8.88954
10.7856
13.0564
15.8267
19.155
)
;

boundaryField
{
    movingWall
    {
        type            zeroGradient;
    }
    fixedWalls
    {
        type            zeroGradient;
    }
    frontAndBack
    {
        type            empty;
    }
}


// ************************************************************************* //
