/*--------------------------------*- C++ -*----------------------------------*\
  =========                 |
  \\      /  F ield         | OpenFOAM: The Open Source CFD Toolbox
   \\    /   O peration     | Website:  https://openfoam.org
    \\  /    A nd           | Version:  v11
     \\/     M anipulation  |
\*---------------------------------------------------------------------------*/
FoamFile
{
    format      ascii;
    class       surfaceScalarField;
    location    "0.3";
    object      phi;
}
// * * * * * * * * * * * * * * * * * * * * * * * * * * * * * * * * * * * * * //

dimensions      [0 3 -1 0 0 0 0];

internalField   nonuniform List<scalar> 
760
(
-9.85791e-06
-1.35011e-06
-1.63954e-05
-4.1239e-06
-1.97269e-05
-6.34606e-06
-2.14394e-05
-8.35167e-06
-2.24052e-05
-1.03044e-05
-2.28848e-05
-1.21686e-05
-2.29311e-05
-1.38658e-05
-2.25534e-05
-1.53202e-05
-2.17621e-05
-1.64646e-05
-2.05802e-05
-1.72412e-05
-1.90451e-05
-1.76026e-05
-1.72089e-05
-1.7515e-05
-1.51358e-05
-1.69612e-05
-1.29e-05
-1.59437e-05
-1.058e-05
-1.44845e-05
-8.25348e-06
-1.2623e-05
-5.99131e-06
-1.04076e-05
-3.84915e-06
-7.8808e-06
-1.8588e-06
-5.05489e-06
-1.87389e-06
-3.01247e-05
-2.671e-06
-4.76426e-05
-7.85236e-06
-5.47243e-05
-1.16729e-05
-5.76924e-05
-1.51369e-05
-5.90316e-05
-1.85239e-05
-5.92856e-05
-2.17354e-05
-5.85629e-05
-2.46439e-05
-5.69085e-05
-2.71402e-05
-5.43738e-05
-2.91286e-05
-5.10282e-05
-3.05231e-05
-4.6961e-05
-3.12469e-05
-4.22827e-05
-3.12361e-05
-3.71241e-05
-3.04443e-05
-3.16332e-05
-2.88486e-05
-2.59706e-05
-2.64532e-05
-2.03e-05
-2.32896e-05
-1.47763e-05
-1.94079e-05
-9.52596e-06
-1.4855e-05
-4.61821e-06
-9.63217e-06
-3.61563e-06
-4.90447e-05
-3.53908e-06
-7.3008e-05
-1.01635e-05
-7.98239e-05
-1.47867e-05
-8.18877e-05
-1.91332e-05
-8.23105e-05
-2.34226e-05
-8.15387e-05
-2.74872e-05
-7.96791e-05
-3.11885e-05
-7.68017e-05
-3.44157e-05
-7.2976e-05
-3.70681e-05
-6.82777e-05
-3.90467e-05
-6.27923e-05
-4.02526e-05
-5.66201e-05
-4.05891e-05
-4.98805e-05
-3.9967e-05
-4.27145e-05
-3.83131e-05
-3.52854e-05
-3.55781e-05
-2.77733e-05
-3.17422e-05
-2.03629e-05
-2.6812e-05
-1.32192e-05
-2.07982e-05
-6.4466e-06
-1.36628e-05
-5.20393e-06
-6.35214e-05
-3.50929e-06
-8.97303e-05
-1.04208e-05
-9.45041e-05
-1.54069e-05
-9.52854e-05
-2.03663e-05
-9.4739e-05
-2.53061e-05
-9.3102e-05
-3.00174e-05
-9.04582e-05
-3.43667e-05
-8.68717e-05
-3.82471e-05
-8.23996e-05
-4.15549e-05
-7.70974e-05
-4.41805e-05
-7.10244e-05
-4.60046e-05
-6.42502e-05
-4.68992e-05
-5.68619e-05
-4.6731e-05
-4.89712e-05
-4.53694e-05
-4.0719e-05
-4.26976e-05
-3.22754e-05
-3.86225e-05
-2.3831e-05
-3.30784e-05
-1.55712e-05
-2.60098e-05
-7.63221e-06
-1.73129e-05
-6.69154e-06
-7.31436e-05
-2.45063e-06
-9.95485e-05
-8.76496e-06
-0.000102495
-1.40627e-05
-0.000102498
-1.95986e-05
-0.000101411
-2.51456e-05
-9.93343e-05
-3.04816e-05
-9.63296e-05
-3.54771e-05
-9.24455e-05
-4.00258e-05
-8.77227e-05
-4.40209e-05
-8.21978e-05
-4.73451e-05
-7.59085e-05
-4.98649e-05
-6.89001e-05
-5.14277e-05
-6.12336e-05
-5.18627e-05
-5.29947e-05
-5.0986e-05
-4.43023e-05
-4.86105e-05
-3.53129e-05
-4.45592e-05
-2.62164e-05
-3.86749e-05
-1.7213e-05
-3.08106e-05
-8.46724e-06
-2.0771e-05
-8.14363e-06
-7.94913e-05
-4.80001e-07
-0.000105601
-5.6592e-06
-0.000107428
-1.13849e-05
-0.00010714
-1.75428e-05
-0.000105857
-2.3727e-05
-0.000103625
-2.97143e-05
-0.000100496
-3.53759e-05
-9.65088e-05
-4.06062e-05
-9.16967e-05
-4.52989e-05
-8.60856e-05
-4.93352e-05
-7.96997e-05
-5.25755e-05
-7.25672e-05
-5.48523e-05
-6.47292e-05
-5.59663e-05
-5.62502e-05
-5.5687e-05
-4.72301e-05
-5.37587e-05
-3.78128e-05
-4.99134e-05
-2.81881e-05
-4.38855e-05
-1.85712e-05
-3.54102e-05
-9.15656e-06
-2.41713e-05
-9.61128e-06
-8.42582e-05
2.24669e-06
-0.000110135
-1.49049e-06
-0.000111357
-7.79433e-06
-0.000111046
-1.46314e-05
-0.000109733
-2.149e-05
-0.000107467
-2.81488e-05
-0.000104301
-3.44797e-05
-0.000100275
-4.03814e-05
-9.54223e-05
-4.57541e-05
-8.97632e-05
-5.04856e-05
-8.33125e-05
-5.44391e-05
-7.60841e-05
-5.74421e-05
-6.81003e-05
-5.92769e-05
-5.94049e-05
-5.96743e-05
-5.00778e-05
-5.83136e-05
-4.02496e-05
-5.48314e-05
-3.01096e-05
-4.88358e-05
-1.98909e-05
-3.99149e-05
-9.82285e-06
-2.75935e-05
-1.1131e-05
-8.85205e-05
5.63893e-06
-0.000114289
3.51679e-06
-0.000115159
-3.51757e-06
-0.00011493
-1.10848e-05
-0.000113637
-1.86461e-05
-0.000111363
-2.59805e-05
-0.000108173
-3.29637e-05
-0.000104119
-3.95046e-05
-9.92345e-05
-4.55175e-05
-9.35394e-05
-5.09051e-05
-8.70389e-05
-5.55429e-05
-7.97314e-05
-5.92634e-05
-7.16188e-05
-6.1841e-05
-6.27203e-05
-6.29778e-05
-5.30912e-05
-6.22945e-05
-4.28439e-05
-5.93298e-05
-3.21643e-05
-5.35499e-05
-2.13042e-05
-4.43609e-05
-1.05355e-05
-3.108e-05
-1.27296e-05
-9.28025e-05
9.67799e-06
-0.000118516
9.25493e-06
-0.000119124
1.33094e-06
-0.000118995
-7.0125e-06
-0.000117705
-1.52962e-05
-0.000115402
-2.32962e-05
-0.00011217
-3.08971e-05
-0.000108076
-3.80261e-05
-0.000103161
-4.46198e-05
-9.74419e-05
-5.06049e-05
-9.09137e-05
-5.58785e-05
-8.35567e-05
-6.02886e-05
-7.53474e-05
-6.36131e-05
-6.62747e-05
-6.55375e-05
-5.63616e-05
-6.5634e-05
-4.56935e-05
-6.33458e-05
-3.44453e-05
-5.79841e-05
-2.28855e-05
-4.87357e-05
-1.13358e-05
-3.46474e-05
-1.4429e-05
-9.73077e-05
1.43924e-05
-0.000122945
1.56755e-05
-0.000123294
6.68573e-06
-0.000123233
-2.48058e-06
-0.000121889
-1.15016e-05
-0.000119507
-2.01444e-05
-0.000116196
-2.83115e-05
-0.000112044
-3.59576e-05
-0.000107099
-4.30518e-05
-0.000101377
-4.9554e-05
-9.48581e-05
-5.53926e-05
-8.75015e-05
-6.04417e-05
-7.92525e-05
-6.44954e-05
-7.00615e-05
-6.72369e-05
-5.99089e-05
-6.82043e-05
-4.88401e-05
-6.67547e-05
-3.7006e-05
-6.20376e-05
-2.46846e-05
-5.2983e-05
-1.22541e-05
-3.82899e-05
-1.62482e-05
-0.000102089
1.98348e-05
-0.000127572
2.27479e-05
-0.000127615
1.24891e-05
-0.000127543
2.44618e-06
-0.000126052
-7.32388e-06
-0.000123515
-1.65723e-05
-0.000120072
-2.52332e-05
-0.000115836
-3.33018e-05
-0.000110867
-4.07908e-05
-0.000105172
-4.77034e-05
-9.87186e-05
-5.40087e-05
-9.14378e-05
-5.96178e-05
-8.32376e-05
-6.43538e-05
-7.40203e-05
-6.79146e-05
-6.37103e-05
-6.98237e-05
-5.22952e-05
-6.93704e-05
-3.98828e-05
-6.55466e-05
-2.67452e-05
-5.69944e-05
-1.33196e-05
-4.19736e-05
-1.82037e-05
-0.000107137
2.60638e-05
-0.000132338
3.04275e-05
-0.00013198
1.86584e-05
-0.000131767
7.67244e-06
-0.000129991
-2.85219e-06
-0.000127188
-1.2648e-05
-0.000123538
-2.17027e-05
-0.000119185
-3.00688e-05
-0.000114195
-3.78157e-05
-0.000108571
-4.49998e-05
-0.000102259
-5.16398e-05
-9.51595e-05
-5.76933e-05
-8.71351e-05
-6.30259e-05
-7.80299e-05
-6.73686e-05
-6.7696e-05
-7.02558e-05
-5.60407e-05
-7.09378e-05
-4.30992e-05
-6.82697e-05
-2.91108e-05
-6.05896e-05
-1.45661e-05
-4.5621e-05
-2.03064e-05
-0.00011242
3.3125e-05
-0.000137155
3.8621e-05
-0.00013623
2.50494e-05
-0.000135666
1.30401e-05
-0.000133402
1.77171e-06
-0.000130178
-8.47997e-06
-0.000126219
-1.779e-05
-0.000121701
-2.62902e-05
-0.000116695
-3.41203e-05
-0.000111194
-4.13986e-05
-0.000105122
-4.82002e-05
-9.83428e-05
-5.45372e-05
-9.0668e-05
-6.03297e-05
-8.18727e-05
-6.53616e-05
-7.1719e-05
-6.92079e-05
-6.0005e-05
-7.11216e-05
-4.66527e-05
-6.98647e-05
-3.18222e-05
-6.34851e-05
-1.6034e-05
-4.90831e-05
-2.25545e-05
-0.00011788
4.10159e-05
-0.000141876
4.71337e-05
-0.000140103
3.14049e-05
-0.000138863
1.82877e-05
-0.000135825
6.32643e-06
-0.000131969
-4.23602e-06
-0.000127565
-1.36106e-05
-0.000122817
-2.2034e-05
-0.000117795
-2.97292e-05
-0.000112477
-3.68813e-05
-0.000106762
-4.36247e-05
-0.000100475
-5.00298e-05
-9.33752e-05
-5.60806e-05
-8.51608e-05
-6.16322e-05
-7.54862e-05
-6.63343e-05
-6.40066e-05
-6.94962e-05
-5.04754e-05
-6.986e-05
-3.48979e-05
-6.52459e-05
-1.7767e-05
-5.2089e-05
-2.49152e-05
-0.000123389
4.96021e-05
-0.000146221
5.55719e-05
-0.000143125
3.7275e-05
-0.000140721
2.29982e-05
-0.000136518
1.048e-05
-0.000131757
-1.6585e-07
-0.000126739
-9.34372e-06
-0.000121679
-1.74249e-05
-0.000116633
-2.47207e-05
-0.000111559
-3.14817e-05
-0.000106329
-3.78972e-05
-0.000100735
-4.4094e-05
-9.44861e-05
-5.01228e-05
-8.72056e-05
-5.59242e-05
-7.84293e-05
-6.12555e-05
-6.76362e-05
-6.55468e-05
-5.43414e-05
-6.76259e-05
-3.82799e-05
-6.522e-05
-1.97948e-05
-5.416e-05
-2.72836e-05
-0.000128576
5.83867e-05
-0.00014955
6.31506e-05
-0.000144344
4.1894e-05
-0.000140077
2.65301e-05
-0.00013422
1.37549e-05
-0.000128239
3.38241e-06
-0.000122427
-5.25515e-06
-0.00011697
-1.26699e-05
-0.000111891
-1.92584e-05
-0.000107116
-2.53236e-05
-0.000102496
-3.1096e-05
-9.78018e-05
-3.6747e-05
-9.27124e-05
-4.23876e-05
-8.67918e-05
-4.8047e-05
-7.94666e-05
-5.36144e-05
-7.00217e-05
-5.87048e-05
-5.76625e-05
-6.23663e-05
-4.1692e-05
-6.24616e-05
-2.2076e-05
-5.44695e-05
-2.93847e-05
-0.000132276
6.57671e-05
-0.000150253
6.82595e-05
-0.000141704
4.39862e-05
-0.000134674
2.79231e-05
-0.000126664
1.548e-05
-0.000119197
5.91463e-06
-0.000112477
-1.72737e-06
-0.000106593
-8.09005e-06
-0.000101501
-1.36269e-05
-9.70858e-05
-1.8665e-05
-9.31834e-05
-2.345e-05
-8.95667e-05
-2.81738e-05
-8.59212e-05
-3.2986e-05
-8.18019e-05
-3.79887e-05
-7.65762e-05
-4.32024e-05
-6.93661e-05
-4.84677e-05
-5.90357e-05
-5.31889e-05
-4.42776e-05
-5.56856e-05
-2.43187e-05
-5.16416e-05
-3.05512e-05
-0.000130556
6.60285e-05
-0.000143943
6.6694e-05
-0.000130504
4.11732e-05
-0.000119874
2.5625e-05
-0.000109542
1.46484e-05
-0.000100662
6.72548e-06
-9.32145e-05
6.92646e-07
-8.71e-05
-4.15215e-06
-8.2163e-05
-8.25744e-06
-7.82381e-05
-1.19266e-05
-7.5153e-05
-1.53807e-05
-7.2713e-05
-1.87942e-05
-7.06661e-05
-2.23151e-05
-6.8646e-05
-2.60741e-05
-6.60823e-05
-3.01768e-05
-6.20751e-05
-3.46612e-05
-5.52591e-05
-3.93444e-05
-4.36614e-05
-4.33213e-05
-2.54121e-05
-4.3394e-05
-2.90569e-05
-0.000108858
4.79741e-05
-0.000116998
4.72217e-05
-9.93584e-05
2.82325e-05
-8.579e-05
1.69723e-05
-7.44263e-05
9.74972e-06
-6.5381e-05
4.86534e-06
-5.82775e-05
1.3276e-06
-5.27788e-05
-1.407e-06
-4.86119e-05
-3.65658e-06
-4.55667e-05
-5.62308e-06
-4.34809e-05
-7.4472e-06
-4.22189e-05
-9.23781e-06
-4.16425e-05
-1.10893e-05
-4.15633e-05
-1.3093e-05
-4.16563e-05
-1.53445e-05
-4.13024e-05
-1.7943e-05
-3.93371e-05
-2.09619e-05
-3.35687e-05
-2.42908e-05
-2.1563e-05
-2.69252e-05
-2.26522e-05
-3.1348e-05
-3.24553e-05
-2.23552e-05
-1.33794e-05
-6.52959e-06
-1.45202e-06
2.28876e-06
5.01282e-06
6.93725e-06
8.20368e-06
8.89998e-06
9.07501e-06
8.74905e-06
7.92448e-06
6.60584e-06
4.8553e-06
2.94591e-06
1.89285e-06
1.3151e-06
)
;

boundaryField
{
    movingWall
    {
        type            calculated;
        value           uniform 0;
    }
    fixedWalls
    {
        type            calculated;
        value           uniform 0;
    }
    frontAndBack
    {
        type            empty;
    }
}


// ************************************************************************* //
