/*--------------------------------*- C++ -*----------------------------------*\
  =========                 |
  \\      /  F ield         | OpenFOAM: The Open Source CFD Toolbox
   \\    /   O peration     | Website:  https://openfoam.org
    \\  /    A nd           | Version:  v11
     \\/     M anipulation  |
\*---------------------------------------------------------------------------*/
FoamFile
{
    format      ascii;
    class       surfaceScalarField;
    location    "0.2";
    object      phi;
}
// * * * * * * * * * * * * * * * * * * * * * * * * * * * * * * * * * * * * * //

dimensions      [0 3 -1 0 0 0 0];

internalField   nonuniform List<scalar> 
760
(
-9.8579e-06
-1.34969e-06
-1.63953e-05
-4.12286e-06
-1.97266e-05
-6.34476e-06
-2.14391e-05
-8.3503e-06
-2.24049e-05
-1.0303e-05
-2.28844e-05
-1.21673e-05
-2.29308e-05
-1.38645e-05
-2.25531e-05
-1.53189e-05
-2.17618e-05
-1.64634e-05
-2.05799e-05
-1.72401e-05
-1.90449e-05
-1.76015e-05
-1.72087e-05
-1.75139e-05
-1.51357e-05
-1.69603e-05
-1.28999e-05
-1.59428e-05
-1.05799e-05
-1.44838e-05
-8.25341e-06
-1.26224e-05
-5.99127e-06
-1.04072e-05
-3.84913e-06
-7.88051e-06
-1.8588e-06
-5.05472e-06
-1.87384e-06
-3.0125e-05
-2.67026e-06
-4.76427e-05
-7.85065e-06
-5.47241e-05
-1.16708e-05
-5.76921e-05
-1.51348e-05
-5.90313e-05
-1.85219e-05
-5.92854e-05
-2.17335e-05
-5.85626e-05
-2.46421e-05
-5.69082e-05
-2.71385e-05
-5.43736e-05
-2.9127e-05
-5.10279e-05
-3.05215e-05
-4.69607e-05
-3.12454e-05
-4.22825e-05
-3.12346e-05
-3.71239e-05
-3.0443e-05
-3.16331e-05
-2.88474e-05
-2.59705e-05
-2.64522e-05
-2.02999e-05
-2.32888e-05
-1.47763e-05
-1.94073e-05
-9.52593e-06
-1.48545e-05
-4.6182e-06
-9.6319e-06
-3.61554e-06
-4.90459e-05
-3.53824e-06
-7.30091e-05
-1.01616e-05
-7.98247e-05
-1.47847e-05
-8.18884e-05
-1.91313e-05
-8.23111e-05
-2.34207e-05
-8.15392e-05
-2.74855e-05
-7.96795e-05
-3.11869e-05
-7.68021e-05
-3.44142e-05
-7.29764e-05
-3.70666e-05
-6.82779e-05
-3.90453e-05
-6.27925e-05
-4.02513e-05
-5.66203e-05
-4.05878e-05
-4.98805e-05
-3.99659e-05
-4.27145e-05
-3.83121e-05
-3.52855e-05
-3.55771e-05
-2.77733e-05
-3.17414e-05
-2.03629e-05
-2.68113e-05
-1.32192e-05
-2.07977e-05
-6.4466e-06
-1.36625e-05
-5.20383e-06
-6.35238e-05
-3.50854e-06
-8.97326e-05
-1.04192e-05
-9.45058e-05
-1.54053e-05
-9.52869e-05
-2.03648e-05
-9.47404e-05
-2.53047e-05
-9.31032e-05
-3.00162e-05
-9.04593e-05
-3.43656e-05
-8.68727e-05
-3.82461e-05
-8.24004e-05
-4.1554e-05
-7.70981e-05
-4.41796e-05
-7.10249e-05
-4.60037e-05
-6.42506e-05
-4.68983e-05
-5.68622e-05
-4.67301e-05
-4.89714e-05
-4.53686e-05
-4.07192e-05
-4.26969e-05
-3.22755e-05
-3.86219e-05
-2.3831e-05
-3.30779e-05
-1.55713e-05
-2.60094e-05
-7.63222e-06
-1.73126e-05
-6.69145e-06
-7.31467e-05
-2.45006e-06
-9.95513e-05
-8.76385e-06
-0.000102497
-1.40616e-05
-0.0001025
-1.95976e-05
-0.000101413
-2.51447e-05
-9.93357e-05
-3.04808e-05
-9.63309e-05
-3.54764e-05
-9.24466e-05
-4.00251e-05
-8.77236e-05
-4.40203e-05
-8.21985e-05
-4.73446e-05
-7.59092e-05
-4.98643e-05
-6.89007e-05
-5.14271e-05
-6.1234e-05
-5.18622e-05
-5.2995e-05
-5.09855e-05
-4.43026e-05
-4.861e-05
-3.53131e-05
-4.45588e-05
-2.62165e-05
-3.86745e-05
-1.72131e-05
-3.08103e-05
-8.46727e-06
-2.07708e-05
-8.14356e-06
-7.94944e-05
-4.79602e-07
-0.000105603
-5.65849e-06
-0.00010743
-1.13842e-05
-0.000107142
-1.75422e-05
-0.000105859
-2.37265e-05
-0.000103627
-2.97138e-05
-0.000100497
-3.53755e-05
-9.65097e-05
-4.06058e-05
-9.16975e-05
-4.52986e-05
-8.60863e-05
-4.93349e-05
-7.97003e-05
-5.25752e-05
-7.25677e-05
-5.4852e-05
-6.47295e-05
-5.5966e-05
-5.62505e-05
-5.56867e-05
-4.72303e-05
-5.37584e-05
-3.7813e-05
-4.99132e-05
-2.81882e-05
-4.38852e-05
-1.85713e-05
-3.541e-05
-9.15659e-06
-2.41711e-05
-9.61123e-06
-8.42609e-05
2.24696e-06
-0.000110138
-1.49007e-06
-0.000111359
-7.79396e-06
-0.000111047
-1.4631e-05
-0.000109734
-2.14898e-05
-0.000107468
-2.81485e-05
-0.000104301
-3.44795e-05
-0.000100276
-4.03812e-05
-9.54228e-05
-4.57539e-05
-8.97637e-05
-5.04854e-05
-8.33129e-05
-5.44389e-05
-7.60844e-05
-5.74419e-05
-6.81006e-05
-5.92767e-05
-5.94052e-05
-5.96741e-05
-5.0078e-05
-5.83135e-05
-4.02497e-05
-5.48312e-05
-3.01097e-05
-4.88357e-05
-1.98909e-05
-3.99148e-05
-9.82288e-06
-2.75934e-05
-1.1131e-05
-8.85226e-05
5.63912e-06
-0.000114291
3.517e-06
-0.00011516
-3.51739e-06
-0.000114931
-1.10846e-05
-0.000113638
-1.86459e-05
-0.000111364
-2.59803e-05
-0.000108174
-3.29636e-05
-0.000104119
-3.95045e-05
-9.92348e-05
-4.55174e-05
-9.35397e-05
-5.0905e-05
-8.70391e-05
-5.55428e-05
-7.97317e-05
-5.92633e-05
-7.1619e-05
-6.18409e-05
-6.27204e-05
-6.29777e-05
-5.30913e-05
-6.22945e-05
-4.2844e-05
-5.93297e-05
-3.21644e-05
-5.35498e-05
-2.13042e-05
-4.43608e-05
-1.05355e-05
-3.10799e-05
-1.27296e-05
-9.2804e-05
9.67811e-06
-0.000118517
9.25501e-06
-0.000119124
1.33101e-06
-0.000118996
-7.01244e-06
-0.000117705
-1.52961e-05
-0.000115403
-2.32961e-05
-0.000112171
-3.08971e-05
-0.000108076
-3.8026e-05
-0.000103161
-4.46198e-05
-9.74421e-05
-5.06049e-05
-9.09139e-05
-5.58784e-05
-8.35569e-05
-6.02885e-05
-7.53476e-05
-6.3613e-05
-6.62748e-05
-6.55375e-05
-5.63617e-05
-6.5634e-05
-4.56936e-05
-6.33458e-05
-3.44453e-05
-5.79841e-05
-2.28855e-05
-4.87357e-05
-1.13358e-05
-3.46474e-05
-1.4429e-05
-9.73088e-05
1.43925e-05
-0.000122946
1.56755e-05
-0.000123295
6.68574e-06
-0.000123233
-2.48056e-06
-0.000121889
-1.15016e-05
-0.000119507
-2.01444e-05
-0.000116196
-2.83115e-05
-0.000112044
-3.59576e-05
-0.000107099
-4.30518e-05
-0.000101377
-4.9554e-05
-9.48582e-05
-5.53926e-05
-8.75016e-05
-6.04417e-05
-7.92526e-05
-6.44954e-05
-7.00616e-05
-6.72369e-05
-5.9909e-05
-6.82043e-05
-4.88401e-05
-6.67547e-05
-3.7006e-05
-6.20375e-05
-2.46847e-05
-5.2983e-05
-1.22541e-05
-3.82899e-05
-1.62482e-05
-0.00010209
1.98348e-05
-0.000127572
2.27479e-05
-0.000127615
1.24891e-05
-0.000127543
2.44618e-06
-0.000126053
-7.32387e-06
-0.000123516
-1.65723e-05
-0.000120072
-2.52332e-05
-0.000115837
-3.33018e-05
-0.000110867
-4.07908e-05
-0.000105172
-4.77034e-05
-9.87187e-05
-5.40087e-05
-9.14379e-05
-5.96178e-05
-8.32376e-05
-6.43538e-05
-7.40203e-05
-6.79146e-05
-6.37103e-05
-6.98237e-05
-5.22953e-05
-6.93704e-05
-3.98828e-05
-6.55466e-05
-2.67452e-05
-5.69944e-05
-1.33196e-05
-4.19736e-05
-1.82037e-05
-0.000107138
2.60638e-05
-0.000132338
3.04275e-05
-0.00013198
1.86584e-05
-0.000131767
7.67243e-06
-0.000129991
-2.85219e-06
-0.000127188
-1.2648e-05
-0.000123538
-2.17027e-05
-0.000119185
-3.00688e-05
-0.000114195
-3.78157e-05
-0.000108571
-4.49998e-05
-0.000102259
-5.16398e-05
-9.51595e-05
-5.76933e-05
-8.71352e-05
-6.30259e-05
-7.803e-05
-6.73686e-05
-6.7696e-05
-7.02558e-05
-5.60407e-05
-7.09378e-05
-4.30992e-05
-6.82697e-05
-2.91108e-05
-6.05896e-05
-1.45661e-05
-4.5621e-05
-2.03064e-05
-0.00011242
3.3125e-05
-0.000137155
3.8621e-05
-0.00013623
2.50494e-05
-0.000135666
1.304e-05
-0.000133402
1.7717e-06
-0.000130178
-8.47997e-06
-0.000126219
-1.779e-05
-0.000121701
-2.62902e-05
-0.000116695
-3.41203e-05
-0.000111194
-4.13986e-05
-0.000105122
-4.82002e-05
-9.83428e-05
-5.45372e-05
-9.0668e-05
-6.03297e-05
-8.18727e-05
-6.53616e-05
-7.1719e-05
-6.92079e-05
-6.0005e-05
-7.11216e-05
-4.66527e-05
-6.98647e-05
-3.18222e-05
-6.34851e-05
-1.6034e-05
-4.90831e-05
-2.25545e-05
-0.00011788
4.10159e-05
-0.000141876
4.71337e-05
-0.000140103
3.14049e-05
-0.000138863
1.82877e-05
-0.000135825
6.32643e-06
-0.000131969
-4.23602e-06
-0.000127565
-1.36106e-05
-0.000122817
-2.2034e-05
-0.000117795
-2.97292e-05
-0.000112477
-3.68813e-05
-0.000106762
-4.36247e-05
-0.000100475
-5.00298e-05
-9.33752e-05
-5.60806e-05
-8.51608e-05
-6.16322e-05
-7.54862e-05
-6.63342e-05
-6.40066e-05
-6.94962e-05
-5.04754e-05
-6.986e-05
-3.48979e-05
-6.52459e-05
-1.7767e-05
-5.2089e-05
-2.49152e-05
-0.000123389
4.96021e-05
-0.000146221
5.55718e-05
-0.000143125
3.7275e-05
-0.000140721
2.29982e-05
-0.000136518
1.048e-05
-0.000131757
-1.65851e-07
-0.000126739
-9.34372e-06
-0.000121679
-1.74249e-05
-0.000116633
-2.47207e-05
-0.000111559
-3.14817e-05
-0.000106329
-3.78972e-05
-0.000100735
-4.4094e-05
-9.44861e-05
-5.01228e-05
-8.72056e-05
-5.59242e-05
-7.84293e-05
-6.12555e-05
-6.76362e-05
-6.55468e-05
-5.43414e-05
-6.76259e-05
-3.82799e-05
-6.522e-05
-1.97948e-05
-5.416e-05
-2.72836e-05
-0.000128576
5.83867e-05
-0.00014955
6.31506e-05
-0.000144344
4.1894e-05
-0.000140077
2.65301e-05
-0.00013422
1.37549e-05
-0.000128239
3.38241e-06
-0.000122427
-5.25515e-06
-0.00011697
-1.26699e-05
-0.000111891
-1.92584e-05
-0.000107116
-2.53236e-05
-0.000102496
-3.1096e-05
-9.78018e-05
-3.6747e-05
-9.27124e-05
-4.23876e-05
-8.67918e-05
-4.8047e-05
-7.94666e-05
-5.36144e-05
-7.00217e-05
-5.87048e-05
-5.76625e-05
-6.23663e-05
-4.1692e-05
-6.24616e-05
-2.2076e-05
-5.44695e-05
-2.93847e-05
-0.000132276
6.57671e-05
-0.000150253
6.82594e-05
-0.000141704
4.39862e-05
-0.000134674
2.79231e-05
-0.000126664
1.548e-05
-0.000119197
5.91463e-06
-0.000112477
-1.72737e-06
-0.000106593
-8.09005e-06
-0.000101501
-1.36269e-05
-9.70858e-05
-1.8665e-05
-9.31834e-05
-2.345e-05
-8.95667e-05
-2.81738e-05
-8.59212e-05
-3.2986e-05
-8.18019e-05
-3.79887e-05
-7.65762e-05
-4.32024e-05
-6.93661e-05
-4.84677e-05
-5.90357e-05
-5.31889e-05
-4.42776e-05
-5.56856e-05
-2.43187e-05
-5.16416e-05
-3.05512e-05
-0.000130556
6.60285e-05
-0.000143943
6.6694e-05
-0.000130504
4.11732e-05
-0.000119874
2.5625e-05
-0.000109542
1.46484e-05
-0.000100662
6.72548e-06
-9.32145e-05
6.92646e-07
-8.71e-05
-4.15215e-06
-8.2163e-05
-8.25744e-06
-7.82381e-05
-1.19266e-05
-7.5153e-05
-1.53807e-05
-7.2713e-05
-1.87942e-05
-7.06661e-05
-2.23151e-05
-6.8646e-05
-2.60741e-05
-6.60823e-05
-3.01768e-05
-6.20751e-05
-3.46612e-05
-5.52591e-05
-3.93444e-05
-4.36614e-05
-4.33213e-05
-2.54121e-05
-4.3394e-05
-2.90569e-05
-0.000108858
4.7974e-05
-0.000116998
4.72216e-05
-9.93584e-05
2.82325e-05
-8.579e-05
1.69723e-05
-7.44263e-05
9.74972e-06
-6.5381e-05
4.86533e-06
-5.82775e-05
1.3276e-06
-5.27788e-05
-1.407e-06
-4.86119e-05
-3.65658e-06
-4.55667e-05
-5.62308e-06
-4.34809e-05
-7.4472e-06
-4.22189e-05
-9.23781e-06
-4.16425e-05
-1.10893e-05
-4.15633e-05
-1.3093e-05
-4.16563e-05
-1.53445e-05
-4.13024e-05
-1.7943e-05
-3.93371e-05
-2.09619e-05
-3.35687e-05
-2.42908e-05
-2.1563e-05
-2.69252e-05
-2.26522e-05
-3.1348e-05
-3.24553e-05
-2.23552e-05
-1.33794e-05
-6.52959e-06
-1.45202e-06
2.28876e-06
5.01282e-06
6.93725e-06
8.20368e-06
8.89998e-06
9.07501e-06
8.74905e-06
7.92448e-06
6.60584e-06
4.8553e-06
2.94591e-06
1.89285e-06
1.3151e-06
)
;

boundaryField
{
    movingWall
    {
        type            calculated;
        value           uniform 0;
    }
    fixedWalls
    {
        type            calculated;
        value           uniform 0;
    }
    frontAndBack
    {
        type            empty;
    }
}


// ************************************************************************* //
