/*--------------------------------*- C++ -*----------------------------------*\
  =========                 |
  \\      /  F ield         | OpenFOAM: The Open Source CFD Toolbox
   \\    /   O peration     | Website:  https://openfoam.org
    \\  /    A nd           | Version:  v11
     \\/     M anipulation  |
\*---------------------------------------------------------------------------*/
FoamFile
{
    format      ascii;
    class       volVectorField;
    location    "0.2";
    object      U;
}
// * * * * * * * * * * * * * * * * * * * * * * * * * * * * * * * * * * * * * //

dimensions      [0 1 -1 0 0 0 0];

internalField   nonuniform List<vector> 
400
(
(-0.111268 -0.0127681 0)
(-0.283302 -0.0405898 0)
(-0.372552 -0.0645913 0)
(-0.416387 -0.0865562 0)
(-0.441013 -0.107967 0)
(-0.454985 -0.128587 0)
(-0.460167 -0.147559 0)
(-0.456818 -0.163954 0)
(-0.445043 -0.176915 0)
(-0.425158 -0.185702 0)
(-0.397764 -0.189727 0)
(-0.36376 -0.188601 0)
(-0.324323 -0.182179 0)
(-0.280857 -0.170582 0)
(-0.234913 -0.154191 0)
(-0.188085 -0.13359 0)
(-0.141888 -0.109455 0)
(-0.0976403 -0.0823638 0)
(-0.0563715 -0.0525334 0)
(-0.0182343 -0.0193817 0)
(-0.353896 -0.040848 0)
(-0.851469 -0.123839 0)
(-1.05429 -0.18877 0)
(-1.1345 -0.24707 0)
(-1.17297 -0.303815 0)
(-1.18803 -0.357817 0)
(-1.18309 -0.406793 0)
(-1.15909 -0.448637 0)
(-1.1169 -0.481521 0)
(-1.0577 -0.503866 0)
(-0.983069 -0.514367 0)
(-0.895015 -0.512057 0)
(-0.795951 -0.496397 0)
(-0.688688 -0.467357 0)
(-0.576347 -0.425443 0)
(-0.46222 -0.37164 0)
(-0.349565 -0.307208 0)
(-0.241325 -0.233268 0)
(-0.139784 -0.150101 0)
(-0.0453129 -0.0559012 0)
(-0.607477 -0.065707 0)
(-1.35471 -0.189893 0)
(-1.56569 -0.277804 0)
(-1.62711 -0.358089 0)
(-1.64819 -0.436858 0)
(-1.64398 -0.511351 0)
(-1.61729 -0.578757 0)
(-1.56957 -0.636806 0)
(-1.50217 -0.6835 0)
(-1.41653 -0.716973 0)
(-1.31423 -0.735467 0)
(-1.19711 -0.737387 0)
(-1.06735 -0.72142 0)
(-0.927542 -0.686674 0)
(-0.780739 -0.632815 0)
(-0.630413 -0.560115 0)
(-0.480294 -0.469317 0)
(-0.334051 -0.361169 0)
(-0.194794 -0.23544 0)
(-0.063439 -0.0889305 0)
(-0.826614 -0.0756458 0)
(-1.71468 -0.216399 0)
(-1.87464 -0.313438 0)
(-1.90539 -0.407033 0)
(-1.90584 -0.499863 0)
(-1.88349 -0.587982 0)
(-1.84032 -0.668651 0)
(-1.77771 -0.739714 0)
(-1.69683 -0.799138 0)
(-1.59881 -0.844832 0)
(-1.48474 -0.874596 0)
(-1.35588 -0.886154 0)
(-1.21377 -0.877262 0)
(-1.06037 -0.845876 0)
(-0.898168 -0.790359 0)
(-0.730311 -0.709652 0)
(-0.560467 -0.603268 0)
(-0.392585 -0.47089 0)
(-0.230345 -0.311221 0)
(-0.0753321 -0.119361 0)
(-0.988188 -0.0644646 0)
(-1.93803 -0.20013 0)
(-2.04403 -0.302566 0)
(-2.05561 -0.407377 0)
(-2.0441 -0.512171 0)
(-2.01209 -0.612542 0)
(-1.96099 -0.705881 0)
(-1.89187 -0.790065 0)
(-1.8056 -0.862982 0)
(-1.70294 -0.922338 0)
(-1.5846 -0.965566 0)
(-1.45137 -0.989817 0)
(-1.30427 -0.992008 0)
(-1.14472 -0.968964 0)
(-0.97473 -0.917641 0)
(-0.797052 -0.835379 0)
(-0.615196 -0.720033 0)
(-0.433249 -0.569698 0)
(-0.255356 -0.381516 0)
(-0.0837554 -0.148492 0)
(-1.10231 -0.0332391 0)
(-2.07784 -0.150105 0)
(-2.1463 -0.259618 0)
(-2.15064 -0.376284 0)
(-2.13472 -0.493417 0)
(-2.09926 -0.606533 0)
(-2.04541 -0.713059 0)
(-1.97405 -0.810861 0)
(-1.88591 -0.897784 0)
(-1.78156 -0.97143 0)
(-1.66146 -1.02902 0)
(-1.52612 -1.06731 0)
(-1.37616 -1.08256 0)
(-1.2126 -1.07057 0)
(-1.03702 -1.02692 0)
(-0.851827 -0.947174 0)
(-0.660375 -0.827193 0)
(-0.466899 -0.662995 0)
(-0.276033 -0.449627 0)
(-0.0906946 -0.177511 0)
(-1.1904 0.0144381 0)
(-2.18043 -0.0758216 0)
(-2.22505 -0.195391 0)
(-2.22897 -0.325099 0)
(-2.21252 -0.455397 0)
(-2.17643 -0.581831 0)
(-2.12185 -0.701826 0)
(-2.04974 -0.813283 0)
(-1.96083 -0.914107 0)
(-1.85562 -1.00195 0)
(-1.73446 -1.074 0)
(-1.59759 -1.12682 0)
(-1.44532 -1.15617 0)
(-1.27824 -1.15703 0)
(-1.09752 -1.12361 0)
(-0.905182 -1.0496 0)
(-0.70443 -0.928523 0)
(-0.49965 -0.753763 0)
(-0.29606 -0.517617 0)
(-0.0973713 -0.207277 0)
(-1.26949 0.0759311 0)
(-2.27183 0.016743 0)
(-2.29975 -0.115919 0)
(-2.30626 -0.25977 0)
(-2.29051 -0.403903 0)
(-2.25449 -0.543898 0)
(-2.19955 -0.677207 0)
(-2.12689 -0.801871 0)
(-2.03737 -0.915998 0)
(-1.93152 -1.01745 0)
(-1.80957 -1.10357 0)
(-1.6715 -1.17091 0)
(-1.51726 -1.21499 0)
(-1.34698 -1.23008 0)
(-1.16132 -1.20915 0)
(-0.961834 -1.14394 0)
(-0.751464 -1.02528 0)
(-0.534724 -0.843276 0)
(-0.317504 -0.586626 0)
(-0.104495 -0.238396 0)
(-1.34923 0.150262 0)
(-2.36338 0.124598 0)
(-2.37721 -0.0242264 0)
(-2.38727 -0.183175 0)
(-2.37198 -0.341608 0)
(-2.33563 -0.495091 0)
(-2.27989 -0.641191 0)
(-2.20636 -0.778222 0)
(-2.11614 -0.904654 0)
(-2.00978 -1.01874 0)
(-1.88738 -1.11815 0)
(-1.74864 -1.19966 0)
(-1.59308 -1.25873 0)
(-1.42025 -1.28917 0)
(-1.23015 -1.28286 0)
(-1.02372 -1.22957 0)
(-0.803447 -1.11715 0)
(-0.573864 -0.931707 0)
(-0.341579 -0.657209 0)
(-0.112503 -0.271342 0)
(-1.434 0.237671 0)
(-2.4588 0.246432 0)
(-2.45884 0.0781309 0)
(-2.47228 -0.0968204 0)
(-2.4563 -0.269893 0)
(-2.41852 -0.436538 0)
(-2.36108 -0.594574 0)
(-2.28613 -0.742761 0)
(-2.19503 -0.880113 0)
(-2.08839 -1.00545 0)
(-1.96614 -1.11699 0)
(-1.82764 -1.2119 0)
(-1.67184 -1.28585 0)
(-1.49762 -1.33245 0)
(-1.30414 -1.34272 0)
(-1.09148 -1.3046 0)
(-0.861387 -1.20271 0)
(-0.618181 -1.01838 0)
(-0.36916 -0.729486 0)
(-0.121724 -0.306526 0)
(-1.52543 0.339077 0)
(-2.55857 0.381627 0)
(-2.54397 0.190086 0)
(-2.55971 -0.00185649 0)
(-2.54105 -0.189844 0)
(-2.50014 -0.369074 0)
(-2.43967 -0.537828 0)
(-2.36252 -0.695538 0)
(-2.27034 -0.841971 0)
(-2.16378 -0.976714 0)
(-2.04257 -1.09871 0)
(-1.90563 -1.20575 0)
(-1.75128 -1.29397 0)
(-1.57753 -1.35709 0)
(-1.38248 -1.38562 0)
(-1.16502 -1.36591 0)
(-0.925818 -1.27933 0)
(-0.668561 -1.10172 0)
(-0.40107 -0.803112 0)
(-0.13249 -0.344317 0)
(-1.62389 0.455689 0)
(-2.6619 0.529581 0)
(-2.63101 0.310381 0)
(-2.64687 0.100244 0)
(-2.62251 -0.102867 0)
(-2.57598 -0.29377 0)
(-2.51061 -0.471556 0)
(-2.43017 -0.636621 0)
(-2.33663 -0.789732 0)
(-2.23065 -0.931447 0)
(-2.11169 -1.06162 0)
(-1.97816 -1.17889 0)
(-1.82762 -1.28009 0)
(-1.65705 -1.35944 0)
(-1.46323 -1.40737 0)
(-1.24348 -1.40914 0)
(-0.996848 -1.34306 0)
(-0.725787 -1.17895 0)
(-0.438222 -0.877076 0)
(-0.145201 -0.385022 0)
(-1.72927 0.58868 0)
(-2.76749 0.689099 0)
(-2.71756 0.436916 0)
(-2.72967 0.20708 0)
(-2.6952 -0.0111798 0)
(-2.63947 -0.212323 0)
(-2.56663 -0.396801 0)
(-2.48141 -0.566363 0)
(-2.38609 -0.723056 0)
(-2.28129 -0.8686 0)
(-2.16611 -1.00392 0)
(-2.03838 -1.12869 0)
(-1.89481 -1.24071 0)
(-1.73118 -1.33506 0)
(-1.5427 -1.40268 0)
(-1.32467 -1.42841 0)
(-1.07379 -1.38814 0)
(-0.790373 -1.24559 0)
(-0.481633 -0.949285 0)
(-0.160371 -0.428801 0)
(-1.84101 0.738732 0)
(-2.87335 0.85759 0)
(-2.79963 0.56591 0)
(-2.80158 0.31461 0)
(-2.7506 0.0816819 0)
(-2.68073 -0.127421 0)
(-2.59696 -0.315342 0)
(-2.50499 -0.485678 0)
(-2.40728 -0.642031 0)
(-2.30426 -0.787437 0)
(-2.19463 -0.923996 0)
(-2.07561 -1.05253 0)
(-1.94301 -1.17205 0)
(-1.79135 -1.27886 0)
(-1.61401 -1.36509 0)
(-1.40378 -1.41609 0)
(-1.15415 -1.40652 0)
(-0.861967 -1.29465 0)
(-0.53222 -1.01581 0)
(-0.178622 -0.475442 0)
(-1.9573 0.905065 0)
(-2.97554 1.02966 0)
(-2.86959 0.690602 0)
(-2.85108 0.416221 0)
(-2.77472 0.170284 0)
(-2.68416 -0.0431346 0)
(-2.58513 -0.230025 0)
(-2.48399 -0.396371 0)
(-2.38303 -0.547548 0)
(-2.28232 -0.68795 0)
(-2.18012 -0.820853 0)
(-2.07306 -0.948253 0)
(-1.95619 -1.07049 0)
(-1.82281 -1.18549 0)
(-1.66443 -1.28717 0)
(-1.47091 -1.36267 0)
(-1.23153 -1.3872 0)
(-0.93783 -1.31548 0)
(-0.590074 -1.06956 0)
(-0.200551 -0.523849 0)
(-2.07168 1.08295 0)
(-3.06422 1.19439 0)
(-2.91115 0.799227 0)
(-2.85635 0.501527 0)
(-2.74308 0.24667 0)
(-2.62396 0.0346722 0)
(-2.50495 -0.145141 0)
(-2.39208 -0.301584 0)
(-2.28697 -0.44183 0)
(-2.18904 -0.571496 0)
(-2.09603 -0.694857 0)
(-2.0042 -0.81496 0)
(-1.90812 -0.933464 0)
(-1.80032 -1.05007 0)
(-1.67071 -1.16117 0)
(-1.50621 -1.25697 0)
(-1.29106 -1.31568 0)
(-1.00925 -1.29214 0)
(-0.652355 -1.09794 0)
(-0.226099 -0.570793 0)
(-2.16137 1.2565 0)
(-3.11197 1.32983 0)
(-2.88676 0.871984 0)
(-2.77307 0.554946 0)
(-2.61025 0.299713 0)
(-2.45521 0.0978772 0)
(-2.31276 -0.0669219 0)
(-2.18689 -0.206383 0)
(-2.0776 -0.32915 0)
(-1.98323 -0.441652 0)
(-1.90102 -0.54878 0)
(-1.82713 -0.654281 0)
(-1.75629 -0.76087 0)
(-1.68112 -0.869957 0)
(-1.59103 -0.98067 0)
(-1.47092 -1.08744 0)
(-1.30012 -1.1743 0)
(-1.05311 -1.20182 0)
(-0.707377 -1.07907 0)
(-0.252174 -0.607876 0)
(-2.14386 1.37437 0)
(-3.03516 1.39007 0)
(-2.70514 0.876536 0)
(-2.506 0.55379 0)
(-2.28683 0.31413 0)
(-2.09531 0.135364 0)
(-1.93242 -0.00421371 0)
(-1.79753 -0.118428 0)
(-1.68779 -0.216566 0)
(-1.59998 -0.305145 0)
(-1.53077 -0.38902 0)
(-1.4766 -0.472036 0)
(-1.43323 -0.557365 0)
(-1.39478 -0.647553 0)
(-1.35229 -0.744102 0)
(-1.29145 -0.845959 0)
(-1.18944 -0.945189 0)
(-1.01207 -1.01485 0)
(-0.717961 -0.976565 0)
(-0.263893 -0.614161 0)
(-1.71806 1.25807 0)
(-2.53413 1.25502 0)
(-2.12715 0.755089 0)
(-1.84236 0.462942 0)
(-1.59105 0.267636 0)
(-1.38887 0.131546 0)
(-1.22897 0.0308324 0)
(-1.10428 -0.0482257 0)
(-1.00868 -0.114006 0)
(-0.937401 -0.172 0)
(-0.886805 -0.226124 0)
(-0.85403 -0.279457 0)
(-0.836519 -0.334679 0)
(-0.831308 -0.39433 0)
(-0.833779 -0.460891 0)
(-0.835272 -0.536391 0)
(-0.818546 -0.620503 0)
(-0.750172 -0.703128 0)
(-0.574844 -0.738016 0)
(-0.202006 -0.540777 0)
(-0.32674 0.522249 0)
(-0.750919 0.580051 0)
(-0.551091 0.35983 0)
(-0.349633 0.2129 0)
(-0.191452 0.122195 0)
(-0.0738578 0.0635299 0)
(0.0129029 0.0227637 0)
(0.0765261 -0.00767734 0)
(0.122306 -0.0320275 0)
(0.153736 -0.0528467 0)
(0.173038 -0.0718408 0)
(0.181521 -0.0902859 0)
(0.179815 -0.109276 0)
(0.168053 -0.129897 0)
(0.1461 -0.153382 0)
(0.114125 -0.181243 0)
(0.0744364 -0.215138 0)
(0.0374072 -0.255045 0)
(0.0355338 -0.289336 0)
(0.16778 -0.240118 0)
)
;

boundaryField
{
    movingWall
    {
        type            fixedValue;
        value           uniform (1 0 0);
    }
    fixedWalls
    {
        type            noSlip;
    }
    frontAndBack
    {
        type            empty;
    }
}


// ************************************************************************* //
