/*--------------------------------*- C++ -*----------------------------------*\
  =========                 |
  \\      /  F ield         | OpenFOAM: The Open Source CFD Toolbox
   \\    /   O peration     | Website:  https://openfoam.org
    \\  /    A nd           | Version:  v11
     \\/     M anipulation  |
\*---------------------------------------------------------------------------*/
FoamFile
{
    format      ascii;
    class       volVectorField;
    location    "2.5";
    object      U;
}
// * * * * * * * * * * * * * * * * * * * * * * * * * * * * * * * * * * * * * //

dimensions      [0 1 -1 0 0 0 0];

internalField   nonuniform List<vector> 
400
(
(-0.111267 -0.012773 0)
(-0.283303 -0.0406023 0)
(-0.372557 -0.0646076 0)
(-0.416393 -0.086574 0)
(-0.44102 -0.107986 0)
(-0.454992 -0.128606 0)
(-0.460175 -0.147577 0)
(-0.456825 -0.163971 0)
(-0.44505 -0.176932 0)
(-0.425164 -0.185719 0)
(-0.39777 -0.189742 0)
(-0.363765 -0.188615 0)
(-0.324327 -0.182192 0)
(-0.28086 -0.170593 0)
(-0.234916 -0.1542 0)
(-0.188087 -0.133598 0)
(-0.141889 -0.10946 0)
(-0.0976408 -0.0823677 0)
(-0.0563717 -0.0525356 0)
(-0.0182343 -0.0193824 0)
(-0.35389 -0.0408619 0)
(-0.851464 -0.123873 0)
(-1.05429 -0.188811 0)
(-1.13451 -0.247113 0)
(-1.17297 -0.303858 0)
(-1.18804 -0.357859 0)
(-1.1831 -0.406834 0)
(-1.1591 -0.448676 0)
(-1.11691 -0.481559 0)
(-1.0577 -0.503902 0)
(-0.983075 -0.514401 0)
(-0.89502 -0.512088 0)
(-0.795956 -0.496426 0)
(-0.688692 -0.467382 0)
(-0.57635 -0.425464 0)
(-0.462223 -0.371658 0)
(-0.349567 -0.307221 0)
(-0.241326 -0.233277 0)
(-0.139784 -0.150107 0)
(-0.045313 -0.055903 0)
(-0.607454 -0.065726 0)
(-1.35468 -0.189936 0)
(-1.56567 -0.277852 0)
(-1.6271 -0.358137 0)
(-1.64818 -0.436903 0)
(-1.64397 -0.511394 0)
(-1.61728 -0.578798 0)
(-1.56956 -0.636845 0)
(-1.50216 -0.683537 0)
(-1.41652 -0.717008 0)
(-1.31423 -0.7355 0)
(-1.19711 -0.737418 0)
(-1.06735 -0.721449 0)
(-0.927541 -0.686701 0)
(-0.780738 -0.632839 0)
(-0.630413 -0.560135 0)
(-0.480294 -0.469332 0)
(-0.334051 -0.36118 0)
(-0.194794 -0.235447 0)
(-0.0634389 -0.0889327 0)
(-0.826569 -0.0756643 0)
(-1.71463 -0.216438 0)
(-1.8746 -0.31348 0)
(-1.90535 -0.407072 0)
(-1.90581 -0.499899 0)
(-1.88346 -0.588015 0)
(-1.84029 -0.668682 0)
(-1.77768 -0.739743 0)
(-1.69682 -0.799165 0)
(-1.59879 -0.844858 0)
(-1.48473 -0.87462 0)
(-1.35587 -0.886177 0)
(-1.21377 -0.877284 0)
(-1.06036 -0.845897 0)
(-0.898164 -0.790379 0)
(-0.730308 -0.709669 0)
(-0.560465 -0.603282 0)
(-0.392584 -0.4709 0)
(-0.230345 -0.311227 0)
(-0.075332 -0.119363 0)
(-0.988126 -0.0644794 0)
(-1.93796 -0.20016 0)
(-2.04398 -0.302596 0)
(-2.05557 -0.407403 0)
(-2.04406 -0.512195 0)
(-2.01205 -0.612564 0)
(-1.96096 -0.7059 0)
(-1.89184 -0.790083 0)
(-1.80558 -0.862999 0)
(-1.70292 -0.922354 0)
(-1.58458 -0.965582 0)
(-1.45136 -0.989832 0)
(-1.30426 -0.992022 0)
(-1.14471 -0.968978 0)
(-0.974724 -0.917655 0)
(-0.797048 -0.835391 0)
(-0.615193 -0.720043 0)
(-0.433247 -0.569706 0)
(-0.255355 -0.381521 0)
(-0.0837551 -0.148494 0)
(-1.10224 -0.0332498 0)
(-2.07777 -0.150125 0)
(-2.14625 -0.259637 0)
(-2.1506 -0.376301 0)
(-2.13469 -0.493432 0)
(-2.09923 -0.606546 0)
(-2.04538 -0.71307 0)
(-1.97403 -0.810871 0)
(-1.88589 -0.897794 0)
(-1.78154 -0.971439 0)
(-1.66145 -1.02903 0)
(-1.52611 -1.06732 0)
(-1.37615 -1.08257 0)
(-1.2126 -1.07058 0)
(-1.03702 -1.02693 0)
(-0.851822 -0.947181 0)
(-0.660372 -0.8272 0)
(-0.466897 -0.663001 0)
(-0.276032 -0.449631 0)
(-0.0906942 -0.177513 0)
(-1.19034 0.0144308 0)
(-2.18037 -0.0758337 0)
(-2.22502 -0.195402 0)
(-2.22894 -0.325108 0)
(-2.21249 -0.455405 0)
(-2.17641 -0.581838 0)
(-2.12184 -0.701832 0)
(-2.04973 -0.813288 0)
(-1.96081 -0.914112 0)
(-1.85561 -1.00195 0)
(-1.73445 -1.07401 0)
(-1.59758 -1.12682 0)
(-1.44531 -1.15618 0)
(-1.27824 -1.15704 0)
(-1.09751 -1.12361 0)
(-0.905178 -1.0496 0)
(-0.704427 -0.928527 0)
(-0.499649 -0.753767 0)
(-0.29606 -0.51762 0)
(-0.097371 -0.207277 0)
(-1.26944 0.0759262 0)
(-2.27179 0.0167363 0)
(-2.29972 -0.115925 0)
(-2.30624 -0.259775 0)
(-2.29049 -0.403907 0)
(-2.25448 -0.543901 0)
(-2.19954 -0.67721 0)
(-2.12688 -0.801874 0)
(-2.03736 -0.916 0)
(-1.93152 -1.01745 0)
(-1.80956 -1.10357 0)
(-1.67149 -1.17092 0)
(-1.51726 -1.21499 0)
(-1.34698 -1.23008 0)
(-1.16131 -1.20915 0)
(-0.961832 -1.14394 0)
(-0.751462 -1.02528 0)
(-0.534723 -0.843278 0)
(-0.317503 -0.586628 0)
(-0.104495 -0.238396 0)
(-1.34919 0.150259 0)
(-2.36335 0.124595 0)
(-2.37719 -0.0242289 0)
(-2.38725 -0.183177 0)
(-2.37197 -0.34161 0)
(-2.33562 -0.495093 0)
(-2.27988 -0.641193 0)
(-2.20636 -0.778223 0)
(-2.11613 -0.904655 0)
(-2.00978 -1.01874 0)
(-1.88738 -1.11816 0)
(-1.74864 -1.19967 0)
(-1.59308 -1.25873 0)
(-1.42024 -1.28917 0)
(-1.23014 -1.28286 0)
(-1.02372 -1.22958 0)
(-0.803446 -1.11716 0)
(-0.573864 -0.931708 0)
(-0.341578 -0.65721 0)
(-0.112503 -0.271342 0)
(-1.43397 0.237669 0)
(-2.45878 0.246431 0)
(-2.45883 0.0781303 0)
(-2.47227 -0.0968212 0)
(-2.45629 -0.269894 0)
(-2.41851 -0.436539 0)
(-2.36107 -0.594574 0)
(-2.28613 -0.742762 0)
(-2.19503 -0.880113 0)
(-2.08839 -1.00545 0)
(-1.96614 -1.11699 0)
(-1.82763 -1.2119 0)
(-1.67184 -1.28585 0)
(-1.49762 -1.33245 0)
(-1.30414 -1.34272 0)
(-1.09148 -1.3046 0)
(-0.861387 -1.20271 0)
(-0.618181 -1.01838 0)
(-0.36916 -0.729486 0)
(-0.121724 -0.306526 0)
(-1.52541 0.339076 0)
(-2.55856 0.381628 0)
(-2.54396 0.190087 0)
(-2.5597 -0.00185661 0)
(-2.54104 -0.189844 0)
(-2.50014 -0.369074 0)
(-2.43967 -0.537828 0)
(-2.36252 -0.695539 0)
(-2.27033 -0.841971 0)
(-2.16378 -0.976714 0)
(-2.04257 -1.09871 0)
(-1.90563 -1.20575 0)
(-1.75128 -1.29397 0)
(-1.57753 -1.35709 0)
(-1.38248 -1.38562 0)
(-1.16502 -1.36591 0)
(-0.925817 -1.27933 0)
(-0.668561 -1.10172 0)
(-0.40107 -0.803112 0)
(-0.13249 -0.344317 0)
(-1.62388 0.455689 0)
(-2.6619 0.529582 0)
(-2.63101 0.310381 0)
(-2.64687 0.100244 0)
(-2.62251 -0.102867 0)
(-2.57598 -0.29377 0)
(-2.51061 -0.471556 0)
(-2.43017 -0.636621 0)
(-2.33662 -0.789732 0)
(-2.23065 -0.931447 0)
(-2.11169 -1.06162 0)
(-1.97816 -1.17889 0)
(-1.82762 -1.28009 0)
(-1.65705 -1.35944 0)
(-1.46323 -1.40737 0)
(-1.24348 -1.40914 0)
(-0.996848 -1.34306 0)
(-0.725786 -1.17895 0)
(-0.438222 -0.877076 0)
(-0.145201 -0.385022 0)
(-1.72926 0.58868 0)
(-2.76749 0.6891 0)
(-2.71756 0.436917 0)
(-2.72967 0.20708 0)
(-2.6952 -0.0111797 0)
(-2.63947 -0.212323 0)
(-2.56663 -0.396801 0)
(-2.48141 -0.566364 0)
(-2.38609 -0.723056 0)
(-2.28129 -0.8686 0)
(-2.16611 -1.00392 0)
(-2.03838 -1.12869 0)
(-1.89481 -1.24071 0)
(-1.73118 -1.33506 0)
(-1.5427 -1.40268 0)
(-1.32467 -1.42841 0)
(-1.07379 -1.38814 0)
(-0.790373 -1.24559 0)
(-0.481633 -0.949285 0)
(-0.160371 -0.428801 0)
(-1.84101 0.738732 0)
(-2.87335 0.85759 0)
(-2.79963 0.56591 0)
(-2.80158 0.31461 0)
(-2.7506 0.081682 0)
(-2.68073 -0.127421 0)
(-2.59696 -0.315342 0)
(-2.50499 -0.485678 0)
(-2.40728 -0.642032 0)
(-2.30426 -0.787437 0)
(-2.19463 -0.923996 0)
(-2.07561 -1.05253 0)
(-1.94301 -1.17205 0)
(-1.79135 -1.27886 0)
(-1.61401 -1.36509 0)
(-1.40378 -1.41609 0)
(-1.15415 -1.40652 0)
(-0.861967 -1.29465 0)
(-0.53222 -1.01581 0)
(-0.178622 -0.475442 0)
(-1.95729 0.905066 0)
(-2.97554 1.02966 0)
(-2.86959 0.690603 0)
(-2.85108 0.416221 0)
(-2.77472 0.170284 0)
(-2.68416 -0.0431346 0)
(-2.58513 -0.230025 0)
(-2.48399 -0.396371 0)
(-2.38303 -0.547548 0)
(-2.28232 -0.68795 0)
(-2.18012 -0.820854 0)
(-2.07306 -0.948253 0)
(-1.95619 -1.07049 0)
(-1.82281 -1.18549 0)
(-1.66443 -1.28717 0)
(-1.47091 -1.36267 0)
(-1.23153 -1.3872 0)
(-0.93783 -1.31548 0)
(-0.590074 -1.06956 0)
(-0.200551 -0.523849 0)
(-2.07168 1.08295 0)
(-3.06421 1.19439 0)
(-2.91115 0.799227 0)
(-2.85635 0.501527 0)
(-2.74308 0.24667 0)
(-2.62396 0.0346722 0)
(-2.50495 -0.145141 0)
(-2.39208 -0.301584 0)
(-2.28697 -0.44183 0)
(-2.18904 -0.571496 0)
(-2.09603 -0.694857 0)
(-2.0042 -0.81496 0)
(-1.90812 -0.933464 0)
(-1.80032 -1.05007 0)
(-1.67071 -1.16117 0)
(-1.50621 -1.25697 0)
(-1.29106 -1.31568 0)
(-1.00925 -1.29214 0)
(-0.652355 -1.09794 0)
(-0.226099 -0.570793 0)
(-2.16137 1.2565 0)
(-3.11197 1.32984 0)
(-2.88675 0.871985 0)
(-2.77307 0.554946 0)
(-2.61025 0.299713 0)
(-2.45521 0.0978772 0)
(-2.31276 -0.0669219 0)
(-2.18689 -0.206383 0)
(-2.0776 -0.32915 0)
(-1.98323 -0.441652 0)
(-1.90102 -0.54878 0)
(-1.82713 -0.654281 0)
(-1.75629 -0.76087 0)
(-1.68112 -0.869957 0)
(-1.59103 -0.98067 0)
(-1.47092 -1.08744 0)
(-1.30012 -1.1743 0)
(-1.05311 -1.20182 0)
(-0.707377 -1.07907 0)
(-0.252174 -0.607876 0)
(-2.14386 1.37437 0)
(-3.03516 1.39007 0)
(-2.70514 0.876536 0)
(-2.506 0.553791 0)
(-2.28683 0.31413 0)
(-2.09531 0.135364 0)
(-1.93242 -0.00421371 0)
(-1.79753 -0.118428 0)
(-1.68779 -0.216566 0)
(-1.59998 -0.305145 0)
(-1.53077 -0.38902 0)
(-1.4766 -0.472036 0)
(-1.43323 -0.557365 0)
(-1.39478 -0.647553 0)
(-1.35229 -0.744102 0)
(-1.29145 -0.845959 0)
(-1.18944 -0.945189 0)
(-1.01207 -1.01485 0)
(-0.717961 -0.976565 0)
(-0.263893 -0.614161 0)
(-1.71806 1.25807 0)
(-2.53413 1.25502 0)
(-2.12715 0.755089 0)
(-1.84236 0.462942 0)
(-1.59105 0.267636 0)
(-1.38887 0.131546 0)
(-1.22897 0.0308324 0)
(-1.10428 -0.0482257 0)
(-1.00868 -0.114006 0)
(-0.937401 -0.172 0)
(-0.886805 -0.226124 0)
(-0.85403 -0.279458 0)
(-0.836519 -0.334679 0)
(-0.831308 -0.39433 0)
(-0.833779 -0.460891 0)
(-0.835272 -0.536391 0)
(-0.818546 -0.620503 0)
(-0.750172 -0.703128 0)
(-0.574844 -0.738016 0)
(-0.202006 -0.540777 0)
(-0.32674 0.522249 0)
(-0.750919 0.580052 0)
(-0.551091 0.35983 0)
(-0.349633 0.2129 0)
(-0.191452 0.122195 0)
(-0.0738578 0.0635299 0)
(0.0129029 0.0227638 0)
(0.0765261 -0.00767734 0)
(0.122306 -0.0320275 0)
(0.153736 -0.0528467 0)
(0.173038 -0.0718408 0)
(0.181521 -0.0902859 0)
(0.179815 -0.109276 0)
(0.168053 -0.129897 0)
(0.1461 -0.153382 0)
(0.114125 -0.181243 0)
(0.0744364 -0.215138 0)
(0.0374072 -0.255045 0)
(0.0355338 -0.289336 0)
(0.16778 -0.240118 0)
)
;

boundaryField
{
    movingWall
    {
        type            fixedValue;
        value           uniform (1 0 0);
    }
    fixedWalls
    {
        type            noSlip;
    }
    frontAndBack
    {
        type            empty;
    }
}


// ************************************************************************* //
